# Projected DOS for atomic kind Cs5 at iteration step i = 0, E(Fermi) =     0.092883 a.u.
#     MO Eigenvalue [a.u.]      Occupation                 s                py                pz                px               d-2               d-1                d0               d+1               d+2
       1         -0.731804        2.000000        0.22579514        0.00000000        0.00016136        0.00000803        0.00000000        0.00000000        0.00003711        0.00003392        0.00002343
       2         -0.731732        2.000000        0.22256291        0.00000000        0.00184739        0.00001212        0.00000000        0.00000000        0.00063876        0.00004337        0.00046531
       3         -0.731732        2.000000        0.22256292        0.00000000        0.00184739        0.00001212        0.00000000        0.00000000        0.00063876        0.00004337        0.00046531
       4         -0.731709        2.000000        0.22207597        0.00209462        0.00006359        0.00000878        0.00000180        0.00045184        0.00000439        0.00003936        0.00080651
       5         -0.731709        2.000000        0.22207597        0.00209462        0.00006359        0.00000878        0.00000180        0.00045184        0.00000439        0.00003936        0.00080651
       6         -0.731680        2.000000        0.22098317        0.00000000        0.00037445        0.00268263        0.00000000        0.00000000        0.00002828        0.00073801        0.00042813
       7         -0.731677        2.000000        0.22435752        0.00000000        0.00038854        0.00263803        0.00000000        0.00000000        0.00002888        0.00074073        0.00044926
       8         -0.731651        2.000000        0.21996938        0.00157121        0.00113268        0.00001272        0.00000127        0.00082763        0.00028055        0.00003207        0.00114597
       9         -0.731651        2.000000        0.21996939        0.00157121        0.00113268        0.00001272        0.00000127        0.00082763        0.00028055        0.00003207        0.00114597
      10         -0.731651        2.000000        0.21996938        0.00157121        0.00113268        0.00001272        0.00000127        0.00082763        0.00028055        0.00003207        0.00114597
