# Projected DOS for atomic kind Te3 at iteration step i = 0, E(Fermi) =     0.092883 a.u.
#     MO Eigenvalue [a.u.]      Occupation                 s                py                pz                px               d-2               d-1                d0               d+1               d+2
       1         -0.731804        2.000000        0.00015678        0.00000000        0.00000257        0.00017029        0.00000000        0.00000000        0.00003646        0.00056679        0.00006256
       2         -0.731732        2.000000        0.00012986        0.00000000        0.00009523        0.00013948        0.00000000        0.00000000        0.00028928        0.00049093        0.00007779
       3         -0.731732        2.000000        0.00012986        0.00000000        0.00009523        0.00013948        0.00000000        0.00000000        0.00028928        0.00049093        0.00007779
       4         -0.731709        2.000000        0.00011062        0.00017079        0.00000409        0.00013281        0.00041017        0.00040573        0.00000066        0.00067417        0.00001017
       5         -0.731709        2.000000        0.00011062        0.00017079        0.00000409        0.00013281        0.00041017        0.00040573        0.00000066        0.00067417        0.00001017
       6         -0.731680        2.000000        0.00014087        0.00000000        0.00001160        0.00029216        0.00000000        0.00000000        0.00001278        0.00046815        0.00009079
       7         -0.731677        2.000000        0.00014126        0.00000000        0.00001235        0.00029649        0.00000000        0.00000000        0.00001472        0.00045055        0.00009093
       8         -0.731651        2.000000        0.00009479        0.00013873        0.00006490        0.00011041        0.00047886        0.00050390        0.00018749        0.00061291        0.00003903
       9         -0.731651        2.000000        0.00009479        0.00013873        0.00006490        0.00011041        0.00047886        0.00050390        0.00018749        0.00061291        0.00003903
      10         -0.731651        2.000000        0.00009479        0.00013873        0.00006490        0.00011041        0.00047886        0.00050390        0.00018749        0.00061291        0.00003903
