# Projected DOS for atomic kind Cs3 at iteration step i = 0, E(Fermi) =     0.092883 a.u.
#     MO Eigenvalue [a.u.]      Occupation                 s                py                pz                px               d-2               d-1                d0               d+1               d+2
       1         -0.731804        2.000000        0.02086339        0.00000000        0.00018983        0.00076624        0.00000000        0.00000000        0.00008902        0.00027145        0.00003443
       2         -0.731732        2.000000        0.01541468        0.00000000        0.00469296        0.00097668        0.00000000        0.00000000        0.00044142        0.00031118        0.00038296
       3         -0.731732        2.000000        0.01541468        0.00000000        0.00469296        0.00097668        0.00000000        0.00000000        0.00044142        0.00031118        0.00038296
       4         -0.731709        2.000000        0.01381754        0.00459089        0.00000794        0.00060157        0.00015916        0.00170925        0.00030914        0.00024534        0.00021647
       5         -0.731709        2.000000        0.01381754        0.00459089        0.00000794        0.00060157        0.00015916        0.00170925        0.00030914        0.00024534        0.00021647
       6         -0.731680        2.000000        0.01319223        0.00000000        0.00021954        0.00573378        0.00000000        0.00000000        0.00102825        0.00032605        0.00016909
       7         -0.731677        2.000000        0.01318844        0.00000000        0.00021367        0.00579063        0.00000000        0.00000000        0.00104254        0.00034937        0.00015647
       8         -0.731651        2.000000        0.01011771        0.00386503        0.00334400        0.00075920        0.00022037        0.00213461        0.00042499        0.00025201        0.00049711
       9         -0.731651        2.000000        0.01011771        0.00386503        0.00334400        0.00075920        0.00022037        0.00213461        0.00042499        0.00025201        0.00049711
      10         -0.731651        2.000000        0.01011771        0.00386503        0.00334400        0.00075920        0.00022037        0.00213461        0.00042499        0.00025201        0.00049711
