# Projected DOS for atomic kind Cs7 at iteration step i = 0, E(Fermi) =     0.092883 a.u.
#     MO Eigenvalue [a.u.]      Occupation                 s                py                pz                px               d-2               d-1                d0               d+1               d+2
       1         -0.731804        2.000000        0.02086136        0.00000000        0.00018816        0.00078419        0.00000000        0.00000000        0.00008446        0.00026979        0.00003603
       2         -0.731732        2.000000        0.01545245        0.00000000        0.00464493        0.00100097        0.00000000        0.00000000        0.00043942        0.00030513        0.00038241
       3         -0.731732        2.000000        0.01545245        0.00000000        0.00464493        0.00100097        0.00000000        0.00000000        0.00043942        0.00030513        0.00038241
       4         -0.731709        2.000000        0.01381847        0.00459218        0.00000752        0.00061756        0.00016533        0.00170398        0.00030027        0.00024445        0.00022088
       5         -0.731709        2.000000        0.01381847        0.00459218        0.00000752        0.00061756        0.00016533        0.00170398        0.00030027        0.00024445        0.00022088
       6         -0.731680        2.000000        0.01320283        0.00000000        0.00021578        0.00585062        0.00000000        0.00000000        0.00099019        0.00031814        0.00016109
       7         -0.731677        2.000000        0.01316048        0.00000000        0.00021137        0.00578893        0.00000000        0.00000000        0.00105038        0.00035237        0.00015688
       8         -0.731651        2.000000        0.01015294        0.00387162        0.00330174        0.00078085        0.00022895        0.00212067        0.00041740        0.00024759        0.00049966
       9         -0.731651        2.000000        0.01015294        0.00387162        0.00330174        0.00078085        0.00022895        0.00212067        0.00041740        0.00024759        0.00049966
      10         -0.731651        2.000000        0.01015294        0.00387162        0.00330174        0.00078085        0.00022895        0.00212067        0.00041740        0.00024759        0.00049966
