# Projected DOS for atomic kind Te4 at iteration step i = 0, E(Fermi) =     0.092883 a.u.
#     MO Eigenvalue [a.u.]      Occupation                 s                py                pz                px               d-2               d-1                d0               d+1               d+2
       1         -0.731804        2.000000        0.00015715        0.00000000        0.00000262        0.00017135        0.00000000        0.00000000        0.00003662        0.00056592        0.00006212
       2         -0.731732        2.000000        0.00013039        0.00000000        0.00009511        0.00014092        0.00000000        0.00000000        0.00028930        0.00049231        0.00007737
       3         -0.731732        2.000000        0.00013039        0.00000000        0.00009511        0.00014092        0.00000000        0.00000000        0.00028930        0.00049231        0.00007737
       4         -0.731709        2.000000        0.00011108        0.00017132        0.00000422        0.00013373        0.00041779        0.00040559        0.00000081        0.00067425        0.00001000
       5         -0.731709        2.000000        0.00011108        0.00017132        0.00000422        0.00013373        0.00041779        0.00040559        0.00000081        0.00067425        0.00001000
       6         -0.731680        2.000000        0.00014197        0.00000000        0.00001164        0.00029934        0.00000000        0.00000000        0.00001263        0.00046699        0.00008890
       7         -0.731677        2.000000        0.00014137        0.00000000        0.00001248        0.00029538        0.00000000        0.00000000        0.00001543        0.00044907        0.00009163
       8         -0.731651        2.000000        0.00009539        0.00013963        0.00006498        0.00011174        0.00048912        0.00050170        0.00018707        0.00061566        0.00003872
       9         -0.731651        2.000000        0.00009539        0.00013963        0.00006498        0.00011174        0.00048912        0.00050170        0.00018707        0.00061566        0.00003872
      10         -0.731651        2.000000        0.00009539        0.00013963        0.00006498        0.00011174        0.00048912        0.00050170        0.00018707        0.00061566        0.00003872
