# Projected DOS for atomic kind Cs2 at iteration step i = 0, E(Fermi) =     0.092883 a.u.
#     MO Eigenvalue [a.u.]      Occupation                 s                py                pz                px               d-2               d-1                d0               d+1               d+2
       1         -0.731804        2.000000        0.22724753        0.00000000        0.00016491        0.00000754        0.00000000        0.00000000        0.00003599        0.00003401        0.00002138
       2         -0.731732        2.000000        0.22454149        0.00000000        0.00184894        0.00001142        0.00000000        0.00000000        0.00063186        0.00004308        0.00046007
       3         -0.731732        2.000000        0.22454149        0.00000000        0.00184894        0.00001142        0.00000000        0.00000000        0.00063186        0.00004308        0.00046007
       4         -0.731709        2.000000        0.22380351        0.00210430        0.00006590        0.00000820        0.00000180        0.00045604        0.00000507        0.00003943        0.00079289
       5         -0.731709        2.000000        0.22380351        0.00210430        0.00006590        0.00000820        0.00000180        0.00045604        0.00000507        0.00003943        0.00079289
       6         -0.731680        2.000000        0.22708612        0.00000000        0.00039424        0.00262371        0.00000000        0.00000000        0.00003169        0.00071810        0.00046602
       7         -0.731677        2.000000        0.22367713        0.00000000        0.00038553        0.00264288        0.00000000        0.00000000        0.00002885        0.00074407        0.00044536
       8         -0.731651        2.000000        0.22231712        0.00158510        0.00113206        0.00001195        0.00000125        0.00083380        0.00027625        0.00003181        0.00112553
       9         -0.731651        2.000000        0.22231713        0.00158510        0.00113206        0.00001195        0.00000125        0.00083380        0.00027625        0.00003181        0.00112553
      10         -0.731651        2.000000        0.22231712        0.00158510        0.00113206        0.00001195        0.00000125        0.00083380        0.00027625        0.00003181        0.00112553
