 DBCSR| CPU Multiplication driver                                           XSMM
 DBCSR| Multrec recursion limit                                              512
 DBCSR| Multiplication stack size                                           1000
 DBCSR| Maximum elements for images                                    UNLIMITED
 DBCSR| Multiplicative factor virtual images                                   1
 DBCSR| Use multiplication densification                                       T
 DBCSR| Multiplication size stacks                                             3
 DBCSR| Use memory pool for CPU allocation                                     F
 DBCSR| Number of 3D layers                                               SINGLE
 DBCSR| Use MPI memory allocation                                              F
 DBCSR| Use RMA algorithm                                                      F
 DBCSR| Use Communication thread                                               T
 DBCSR| Communication thread load                                             83
 DBCSR| MPI: My node id                                                        0
 DBCSR| MPI: Number of nodes                                                  12
 DBCSR| OMP: Current number of threads                                         2
 DBCSR| OMP: Max number of threads                                             2
 DBCSR| Split modifier for TAS multiplication algorithm                  1.0E+00


  **** **** ******  **  PROGRAM STARTED AT               2021-06-03 15:06:36.976
 ***** ** ***  *** **   PROGRAM STARTED ON                               mpcl003
 **    ****   ******    PROGRAM STARTED BY                              pubo1141
 ***** **    ** ** **   PROGRAM PROCESS ID                                 15180
  **** **  *******  **  PROGRAM STARTED IN /user/pubo1141/simulations/aiida_test
                                           s/cp2k_8.2/cell_opt_1kpoint_medium

 CP2K| version string:                                          CP2K version 8.2
 CP2K| source code revision number:                                  git:310b7ab
 CP2K| cp2kflags: omp libint fftw3 libxc parallel mpi3 scalapack xsmm spglib mkl
 CP2K|             libvori libbqb
 CP2K| is freely available from                            https://www.cp2k.org/
 CP2K| Program compiled at                         Mon May 31 14:14:56 CEST 2021
 CP2K| Program compiled on                                               hpcl003
 CP2K| Program compiled for                                        carl-mkl-ompi
 CP2K| Data directory path    /cm/shared/uniol/software/8.3/CP2K/8.2-gomkl-2019b
 CP2K| Input file name                                                 aiida.inp

 GLOBAL| Force Environment number                                              1
 GLOBAL| Basis set file name                                        BASIS_MOLOPT
 GLOBAL| Potential file name                                      GTH_POTENTIALS
 GLOBAL| MM Potential file name                                     MM_POTENTIAL
 GLOBAL| Coordinate file name                                      __STD_INPUT__
 GLOBAL| Method name                                                        CP2K
 GLOBAL| Project name                                                      aiida
 GLOBAL| Run type                                                       CELL_OPT
 GLOBAL| FFT library                                                       FFTW3
 GLOBAL| Diagonalization library                                       ScaLAPACK
 GLOBAL| Orthonormality check for eigenvectors                          DISABLED
 GLOBAL| Matrix multiplication library                                    SCALAP
 GLOBAL| All-to-all communication in single precision                          F
 GLOBAL| FFTs using library dependent lengths                                  F
 GLOBAL| Grid backend                                                       AUTO
 GLOBAL| Global print level                                                  LOW
 GLOBAL| MPI I/O enabled                                                       T
 GLOBAL| Total number of message passing processes                            12
 GLOBAL| Number of threads for this process                                    2
 GLOBAL| This output is from process                                           0
 GLOBAL| CPU model name                Intel(R) Xeon(R) CPU E5-2650 v4 @ 2.20GHz
 GLOBAL| CPUID                                                              1002
 GLOBAL| Compiled for CPUID                                                    0

 *** HINT in environment.F:872 :: The compiler target flags (generic) used ***
 *** to build this binary cannot exploit all extensions of this CPU model  ***
 *** (x86_avx2). Consider compiler target flags as part of FCFLAGS and     ***
 *** CFLAGS (ARCH file).                                                   ***


 MEMORY| system memory details [Kb]
 MEMORY|                        rank 0           min           max       average
 MEMORY| MemTotal            131594208     131594208     131594208     131594208
 MEMORY| MemFree              84190476      84190476      84190476      84190476
 MEMORY| Buffers                 30116         30116         30116         30116
 MEMORY| Cached               36606264      36606264      36606264      36606264
 MEMORY| Slab                  2023608       2023608       2023608       2023608
 MEMORY| SReclaimable           885676        885676        885676        885676
 MEMORY| MemLikelyFree       121712532     121712532     121712532     121712532


 GENERATE|  Preliminary Number of Bonds generated:                             0
 GENERATE|  Achieved consistency in connectivity generation.

 *******************************************************************************
 *******************************************************************************
 **                                                                           **
 **     #####                         ##              ##                      **
 **    ##   ##            ##          ##              ##                      **
 **   ##     ##                       ##            ######                    **
 **   ##     ##  ##   ##  ##   #####  ##  ##   ####   ##    #####    #####    **
 **   ##     ##  ##   ##  ##  ##      ## ##   ##      ##   ##   ##  ##   ##   **
 **   ##  ## ##  ##   ##  ##  ##      ####     ###    ##   ######   ######    **
 **    ##  ###   ##   ##  ##  ##      ## ##      ##   ##   ##       ##        **
 **     #######   #####   ##   #####  ##  ##  ####    ##    #####   ##        **
 **           ##                                                    ##        **
 **                                                                           **
 **                                                ... make the atoms dance   **
 **                                                                           **
 **            Copyright (C) by CP2K developers group (2000-2021)             **
 **                      J. Chem. Phys. 152, 194103 (2020)                    **
 **                                                                           **
 *******************************************************************************


 TOTAL NUMBERS AND MAXIMUM NUMBERS

  Total number of            - Atomic kinds:                                   2
                             - Atoms:                                          4
                             - Shell sets:                                     4
                             - Shells:                                        23
                             - Primitive Cartesian functions:                 23
                             - Cartesian basis functions:                     59
                             - Spherical basis functions:                     55

  Maximum angular momentum of- Orbital basis functions:                        2
                             - Local part of the GTH pseudopotential:          2
                             - Non-local part of the GTH pseudopotential:      4


 SCF PARAMETERS         Density guess:                                   RESTART
                        --------------------------------------------------------
                        max_scf:                                             150
                        max_scf_history:                                       0
                        max_diis:                                              4
                        --------------------------------------------------------
                        eps_scf:                                        1.00E-04
                        eps_scf_history:                                0.00E+00
                        eps_diis:                                       1.00E-01
                        eps_eigval:                                     1.00E-05
                        --------------------------------------------------------
                        level_shift [a.u.]:                                 0.00
                        --------------------------------------------------------
                        Mixing method:                            BROYDEN_MIXING
                                                charge density mixing in g-space
                        --------------------------------------------------------
                        No outer SCF

 KPOINTS| Number of kpoint groups                                              1
 KPOINTS| Size of each kpoint group                                           12
 KPOINTS| Number of kpoints per group                                          1

 CELL_OPT| Pressure tolerance [bar]:                                      1000.0
 CELL_OPT| Keep angles between the cell vectors:                              NO
 CELL_OPT| Keep cell symmetry:                                                NO
 CELL_OPT| Constraint:                                                      NONE

 BFGS| Use rational function optimization for step estimation:                NO
 BFGS| Use model Hessian for initial guess:                                   NO
 BFGS| Restart Hessian:                                                       NO
 BFGS| Trust radius:                                                       0.472

 *******************************************************************************
 ***                     STARTING   CELL   OPTIMIZATION                      ***
 ***                                   BFGS                                  ***
 *******************************************************************************

 CELL| Volume [angstrom^3]:                                           204.400073
 CELL| Vector a [angstrom]:       6.612     0.000     0.000   |a| =     6.611987
 CELL| Vector b [angstrom]:       3.306     5.726     0.000   |b| =     6.611987
 CELL| Vector c [angstrom]:       3.306     1.909     5.399   |c| =     6.611987
 CELL| Angle (b,c), alpha [degree]:                                    60.000000
 CELL| Angle (a,c), beta  [degree]:                                    60.000000
 CELL| Angle (a,b), gamma [degree]:                                    60.000000
 CELL| Numerically orthorhombic:                                              NO

 Number of electrons:                                                         32
 Number of occupied orbitals:                                                 16
 Number of molecular orbitals:                                                16

 Number of orbital functions:                                                 55
 Number of independent orbital functions:                                     55

 Extrapolation method: initial_guess

 *** WARNING in qs_initial_guess.F:309 :: User requested to restart the    ***
 *** wavefunction from the file named: aiida-RESTART.kp. This file does    ***
 *** not exist. Please check the existence of the file or change properly  ***
 *** the value of the keyword WFN_RESTART_FILE_NAME. Calculation continues ***
 *** using ATOMIC GUESS.                                                   ***



 SCF WAVEFUNCTION OPTIMIZATION

  Step     Update method      Time    Convergence         Total energy    Change
  ------------------------------------------------------------------------------
     1 NoMix/Diag. 0.30E+00    0.1     2.07213062       -66.3586357441 -6.64E+01
     2 Broy./Diag. 0.30E+00    0.2     0.47944609       -66.2689225164  8.97E-02
     3 Broy./Diag. 0.30E+00    0.2     0.95092469       -66.1351722325  1.34E-01
     4 Broy./Diag. 0.30E+00    0.2     0.28769003       -66.0325873127  1.03E-01
     5 Broy./Diag. 0.30E+00    0.2     0.30702636       -65.9634926875  6.91E-02
     6 Broy./Diag. 0.30E+00    0.2     0.01891917       -65.9627562037  7.36E-04
     7 Broy./Diag. 0.30E+00    0.2     0.00666641       -65.9785204461 -1.58E-02
     8 Broy./Diag. 0.30E+00    0.2     0.00063468       -65.9806519122 -2.13E-03
     9 Broy./Diag. 0.30E+00    0.2     0.00037648       -65.9790934281  1.56E-03
    10 Broy./Diag. 0.30E+00    0.2     0.00003227       -65.9787089596  3.84E-04

  *** SCF run converged in    10 steps ***


  Electronic density on regular grids:        -32.0000000081       -0.0000000081
  Core density on regular grids:               31.9999994881       -0.0000005119
  Total charge density on r-space grids:       -0.0000005199
  Total charge density g-space grids:          -0.0000005199

  Overlap energy of the core charge distribution:               0.00000000000000
  Self energy of the core charge distribution:               -138.89582544120611
  Core Hamiltonian energy:                                     27.15221036839826
  Hartree energy:                                              56.79370955482678
  Exchange-correlation energy:                                -11.02880344161588

  Total energy:                                               -65.97870895959696

 ENERGY| Total FORCE_EVAL ( QS ) energy [a.u.]:              -65.978730315287621

 --------  Informations at step =     0 ------------
  Optimization Method        =                 BFGS
  Total Energy               =       -65.9787303153
  Internal Pressure [bar]    =    -23246.4688343657
  Used time                  =                3.221
 ---------------------------------------------------

 --------------------------
 OPTIMIZATION STEP:      1
 --------------------------

 CELL| Volume [angstrom^3]:                                           203.854358
 CELL| Vector a [angstrom]:       6.607     0.000     0.000   |a| =     6.607377
 CELL| Vector b [angstrom]:       3.306     5.721     0.000   |b| =     6.607379
 CELL| Vector c [angstrom]:       3.306     1.909     5.393   |c| =     6.607379
 CELL| Angle (b,c), alpha [degree]:                                    59.969233
 CELL| Angle (a,c), beta  [degree]:                                    59.976927
 CELL| Angle (a,b), gamma [degree]:                                    59.976926
 CELL| Numerically orthorhombic:                                              NO

 Number of electrons:                                                         32
 Number of occupied orbitals:                                                 16
 Number of molecular orbitals:                                                16

 Number of orbital functions:                                                 55
 Number of independent orbital functions:                                     55

 Extrapolation method: initial_guess


 SCF WAVEFUNCTION OPTIMIZATION

  Step     Update method      Time    Convergence         Total energy    Change
  ------------------------------------------------------------------------------
     1 Broy./Diag. 0.30E+00    0.1     1.29996780       -65.9822811004 -6.60E+01
     2 Broy./Diag. 0.30E+00    0.2     0.00512504       -65.9792778074  3.00E-03
     3 Broy./Diag. 0.30E+00    0.2     0.00642180       -65.9793464585 -6.87E-05
     4 Broy./Diag. 0.30E+00    0.2     0.00127159       -65.9791622796  1.84E-04
     5 Broy./Diag. 0.30E+00    0.2     0.00025354       -65.9790377647  1.25E-04
     6 Broy./Diag. 0.30E+00    0.2     0.00015211       -65.9790092329  2.85E-05
     7 Broy./Diag. 0.30E+00    0.2     0.00003638       -65.9790113055 -2.07E-06

  *** SCF run converged in     7 steps ***


  Electronic density on regular grids:        -32.0000035334       -0.0000035334
  Core density on regular grids:               31.9999994748       -0.0000005252
  Total charge density on r-space grids:       -0.0000040585
  Total charge density g-space grids:          -0.0000040585

  Overlap energy of the core charge distribution:               0.00000000000000
  Self energy of the core charge distribution:               -138.89582544120611
  Core Hamiltonian energy:                                     27.15515152473924
  Hartree energy:                                              56.79176921195035
  Exchange-correlation energy:                                -11.03010660099287

  Total energy:                                               -65.97901130550940

 ENERGY| Total FORCE_EVAL ( QS ) energy [a.u.]:              -65.979020614022431

 --------  Informations at step =     1 ------------
  Optimization Method        =                 BFGS
  Total Energy               =       -65.9790206140
  Internal Pressure [bar]    =    -23169.7877086606
  Real energy change         =        -0.0002902987
  Predicted change in energy =        -0.0001454082
  Scaling factor             =         0.0000000000
  Step size                  =         0.0106666697
  Trust radius               =         0.4724315332
  Decrease in energy         =                  YES
  Used time                  =                2.622

  Convergence check :
  Max. step size             =         0.0106666697
  Conv. limit for step size  =         1.0000000000
  Convergence in step size   =                  YES
  RMS step size              =         0.0040195105
  Conv. limit for RMS step   =         0.5000000000
  Convergence in RMS step    =                  YES
  Max. gradient              =         0.0105887633
  Conv. limit for gradients  =         0.0500000000
  Conv. in gradients         =                  YES
  RMS gradient               =         0.0039938198
  Conv. limit for RMS grad.  =         0.5000000000
  Conv. in RMS gradients     =                  YES
  Pressure Deviation [bar]   =    -23136.9344233388
  Pressure Tolerance [bar]   =      1000.0000000000
  Conv. for  PRESSURE        =                   NO
 ---------------------------------------------------

 --------------------------
 OPTIMIZATION STEP:      2
 --------------------------

  Step is scaled; Scaling factor =  0.28442

 CELL| Volume [angstrom^3]:                                           180.614683
 CELL| Vector a [angstrom]:       6.403     0.000     0.000   |a| =     6.402676
 CELL| Vector b [angstrom]:       3.305     5.485     0.000   |b| =     6.403962
 CELL| Vector c [angstrom]:       3.305     1.908     5.143   |c| =     6.404502
 CELL| Angle (b,c), alpha [degree]:                                    58.561899
 CELL| Angle (a,c), beta  [degree]:                                    58.928121
 CELL| Angle (a,b), gamma [degree]:                                    58.925210
 CELL| Numerically orthorhombic:                                              NO

 Number of electrons:                                                         32
 Number of occupied orbitals:                                                 16
 Number of molecular orbitals:                                                16

 Number of orbital functions:                                                 55
 Number of independent orbital functions:                                     55

 Extrapolation method: initial_guess


 SCF WAVEFUNCTION OPTIMIZATION

  Step     Update method      Time    Convergence         Total energy    Change
  ------------------------------------------------------------------------------
     1 Broy./Diag. 0.30E+00    0.2     2.06608412       -66.0524594691 -6.61E+01
     2 Broy./Diag. 0.30E+00    0.3     0.16771243       -65.9197663460  1.33E-01
     3 Broy./Diag. 0.30E+00    0.3     0.19277659       -65.9724802095 -5.27E-02
     4 Broy./Diag. 0.30E+00    0.2     0.00659710       -65.9945806012 -2.21E-02
     5 Broy./Diag. 0.30E+00    0.3     0.00769442       -65.9976080053 -3.03E-03
     6 Broy./Diag. 0.30E+00    0.2     0.00264594       -65.9909841271  6.62E-03
     7 Broy./Diag. 0.30E+00    0.2     0.00062714       -65.9885499521  2.43E-03
     8 Broy./Diag. 0.30E+00    0.2     0.00015243       -65.9887983925 -2.48E-04
     9 Broy./Diag. 0.30E+00    0.3     0.00002037       -65.9889422439 -1.44E-04

  *** SCF run converged in     9 steps ***


  Electronic density on regular grids:        -31.9999993385        0.0000006615
  Core density on regular grids:               31.9999994872       -0.0000005128
  Total charge density on r-space grids:        0.0000001488
  Total charge density g-space grids:           0.0000001488

  Overlap energy of the core charge distribution:               0.00000000000000
  Self energy of the core charge distribution:               -138.89582544120611
  Core Hamiltonian energy:                                     27.26319837180042
  Hartree energy:                                              56.73371664612540
  Exchange-correlation energy:                                -11.09003182057024

  Total energy:                                               -65.98894224385053

 ENERGY| Total FORCE_EVAL ( QS ) energy [a.u.]:              -65.988967112381914

 --------  Informations at step =     2 ------------
  Optimization Method        =                 BFGS
  Total Energy               =       -65.9889671124
  Internal Pressure [bar]    =    -15830.5198806574
  Real energy change         =        -0.0099464984
  Predicted change in energy =        -0.0109880523
  Scaling factor             =         0.2844248823
  Step size                  =         0.4724315332
  Trust radius               =         0.4724315332
  Decrease in energy         =                  YES
  Used time                  =                3.425

  Convergence check :
  Max. step size             =         0.4724315332
  Conv. limit for step size  =         1.0000000000
  Convergence in step size   =                  YES
  RMS step size              =         0.1781886338
  Conv. limit for RMS step   =         0.5000000000
  Convergence in RMS step    =                  YES
  Max. gradient              =         0.0056505356
  Conv. limit for gradients  =         0.0500000000
  Conv. in gradients         =                  YES
  RMS gradient               =         0.0024589648
  Conv. limit for RMS grad.  =         0.5000000000
  Conv. in RMS gradients     =                  YES
  Pressure Deviation [bar]   =    -15797.6665953356
  Pressure Tolerance [bar]   =      1000.0000000000
  Conv. for  PRESSURE        =                   NO
 ---------------------------------------------------

 --------------------------
 OPTIMIZATION STEP:      3
 --------------------------

  Step is scaled; Scaling factor =  0.77372

 CELL| Volume [angstrom^3]:                                           159.148759
 CELL| Vector a [angstrom]:       6.197     0.000     0.000   |a| =     6.196847
 CELL| Vector b [angstrom]:       3.304     5.249     0.000   |b| =     6.202005
 CELL| Vector c [angstrom]:       3.304     1.906     4.893   |c| =     6.204167
 CELL| Angle (b,c), alpha [degree]:                                    57.061679
 CELL| Angle (a,c), beta  [degree]:                                    57.824007
 CELL| Angle (a,b), gamma [degree]:                                    57.811277
 CELL| Numerically orthorhombic:                                              NO

 Number of electrons:                                                         32
 Number of occupied orbitals:                                                 16
 Number of molecular orbitals:                                                16

 Number of orbital functions:                                                 55
 Number of independent orbital functions:                                     55

 Extrapolation method: initial_guess


 SCF WAVEFUNCTION OPTIMIZATION

  Step     Update method      Time    Convergence         Total energy    Change
  ------------------------------------------------------------------------------
     1 NoMix/Diag. 0.30E+00    0.1     2.04758232       -66.0833655921 -6.61E+01
     2 Broy./Diag. 0.30E+00    0.3     0.14040185       -65.9442499644  1.39E-01
     3 Broy./Diag. 0.30E+00    0.2     0.17664103       -65.9827689955 -3.85E-02
     4 Broy./Diag. 0.30E+00    0.3     0.00495013       -65.9948451434 -1.21E-02
     5 Broy./Diag. 0.30E+00    0.2     0.00478204       -65.9977068668 -2.86E-03
     6 Broy./Diag. 0.30E+00    0.2     0.00212084       -65.9918596572  5.85E-03
     7 Broy./Diag. 0.30E+00    0.2     0.00038620       -65.9898166884  2.04E-03
     8 Broy./Diag. 0.30E+00    0.3     0.00009442       -65.9899172597 -1.01E-04

  *** SCF run converged in     8 steps ***


  Electronic density on regular grids:        -32.0000027300       -0.0000027300
  Core density on regular grids:               31.9999995039       -0.0000004961
  Total charge density on r-space grids:       -0.0000032261
  Total charge density g-space grids:          -0.0000032261

  Overlap energy of the core charge distribution:               0.00000000000000
  Self energy of the core charge distribution:               -138.89582544120611
  Core Hamiltonian energy:                                     27.39618559059782
  Hartree energy:                                              56.67523866881018
  Exchange-correlation energy:                                -11.16551607794519

  Total energy:                                               -65.98991725974331

 ENERGY| Total FORCE_EVAL ( QS ) energy [a.u.]:              -65.990040793700359

 --------  Informations at step =     3 ------------
  Optimization Method        =                 BFGS
  Total Energy               =       -65.9900407937
  Internal Pressure [bar]    =      4963.3987111621
  Real energy change         =        -0.0010736813
  Predicted change in energy =        -0.0044492056
  Scaling factor             =         0.7737240617
  Step size                  =         0.4724315332
  Trust radius               =         0.4724315332
  Decrease in energy         =                  YES
  Used time                  =                3.292

  Convergence check :
  Max. step size             =         0.4724315332
  Conv. limit for step size  =         1.0000000000
  Convergence in step size   =                  YES
  RMS step size              =         0.1785542109
  Conv. limit for RMS step   =         0.5000000000
  Convergence in RMS step    =                  YES
  Max. gradient              =         0.0055602488
  Conv. limit for gradients  =         0.0500000000
  Conv. in gradients         =                  YES
  RMS gradient               =         0.0027561855
  Conv. limit for RMS grad.  =         0.5000000000
  Conv. in RMS gradients     =                  YES
  Pressure Deviation [bar]   =      4996.2519964839
  Pressure Tolerance [bar]   =      1000.0000000000
  Conv. for  PRESSURE        =                   NO
 ---------------------------------------------------

 --------------------------
 OPTIMIZATION STEP:      4
 --------------------------

 CELL| Volume [angstrom^3]:                                           167.343220
 CELL| Vector a [angstrom]:       6.277     0.000     0.000   |a| =     6.276558
 CELL| Vector b [angstrom]:       3.303     5.341     0.000   |b| =     6.280310
 CELL| Vector c [angstrom]:       3.303     1.906     4.992   |c| =     6.281644
 CELL| Angle (b,c), alpha [degree]:                                    57.681563
 CELL| Angle (a,c), beta  [degree]:                                    58.273468
 CELL| Angle (a,b), gamma [degree]:                                    58.265631
 CELL| Numerically orthorhombic:                                              NO

 Number of electrons:                                                         32
 Number of occupied orbitals:                                                 16
 Number of molecular orbitals:                                                16

 Number of orbital functions:                                                 55
 Number of independent orbital functions:                                     55

 Extrapolation method: initial_guess


 SCF WAVEFUNCTION OPTIMIZATION

  Step     Update method      Time    Convergence         Total energy    Change
  ------------------------------------------------------------------------------
     1 Broy./Diag. 0.30E+00    0.1     2.19665280       -65.9535607421 -6.60E+01
     2 Broy./Diag. 0.30E+00    0.2     0.05992671       -66.0336928787 -8.01E-02
     3 Broy./Diag. 0.30E+00    0.2     0.06624716       -66.0037729303  2.99E-02
     4 Broy./Diag. 0.30E+00    0.2     0.00362020       -65.9894397064  1.43E-02
     5 Broy./Diag. 0.30E+00    0.2     0.00055705       -65.9874461474  1.99E-03
     6 Broy./Diag. 0.30E+00    0.2     0.00098504       -65.9901569872 -2.71E-03
     7 Broy./Diag. 0.30E+00    0.2     0.00012449       -65.9910814085 -9.24E-04
     8 Broy./Diag. 0.30E+00    0.2     0.00003668       -65.9910427163  3.87E-05

  *** SCF run converged in     8 steps ***


  Electronic density on regular grids:        -31.9999973502        0.0000026498
  Core density on regular grids:               31.9999994931       -0.0000005069
  Total charge density on r-space grids:        0.0000021429
  Total charge density g-space grids:           0.0000021429

  Overlap energy of the core charge distribution:               0.00000000000000
  Self energy of the core charge distribution:               -138.89582544120611
  Core Hamiltonian energy:                                     27.32640814124466
  Hartree energy:                                              56.71095095352710
  Exchange-correlation energy:                                -11.13257636984510

  Total energy:                                               -65.99104271627945

 ENERGY| Total FORCE_EVAL ( QS ) energy [a.u.]:              -65.990973483446680

 --------  Informations at step =     4 ------------
  Optimization Method        =                 BFGS
  Total Energy               =       -65.9909734834
  Internal Pressure [bar]    =     -4983.2928889752
  Real energy change         =        -0.0009326897
  Predicted change in energy =        -0.0009648516
  Scaling factor             =         0.7737240617
  Step size                  =         0.1861474488
  Trust radius               =         0.4724315332
  Decrease in energy         =                  YES
  Used time                  =                3.208

  Convergence check :
  Max. step size             =         0.1861474488
  Conv. limit for step size  =         1.0000000000
  Convergence in step size   =                  YES
  RMS step size              =         0.0699172469
  Conv. limit for RMS step   =         0.5000000000
  Convergence in RMS step    =                  YES
  Max. gradient              =         0.0028452451
  Conv. limit for gradients  =         0.0500000000
  Conv. in gradients         =                  YES
  RMS gradient               =         0.0016709049
  Conv. limit for RMS grad.  =         0.5000000000
  Conv. in RMS gradients     =                  YES
  Pressure Deviation [bar]   =     -4950.4396036534
  Pressure Tolerance [bar]   =      1000.0000000000
  Conv. for  PRESSURE        =                   NO
 ---------------------------------------------------

 --------------------------
 OPTIMIZATION STEP:      5
 --------------------------

 CELL| Volume [angstrom^3]:                                           166.344246
 CELL| Vector a [angstrom]:       6.266     0.000     0.000   |a| =     6.266052
 CELL| Vector b [angstrom]:       3.302     5.330     0.000   |b| =     6.270348
 CELL| Vector c [angstrom]:       3.302     1.904     4.980   |c| =     6.271734
 CELL| Angle (b,c), alpha [degree]:                                    57.628158
 CELL| Angle (a,c), beta  [degree]:                                    58.229597
 CELL| Angle (a,b), gamma [degree]:                                    58.221533
 CELL| Numerically orthorhombic:                                              NO

 Number of electrons:                                                         32
 Number of occupied orbitals:                                                 16
 Number of molecular orbitals:                                                16

 Number of orbital functions:                                                 55
 Number of independent orbital functions:                                     55

 Extrapolation method: initial_guess


 SCF WAVEFUNCTION OPTIMIZATION

  Step     Update method      Time    Convergence         Total energy    Change
  ------------------------------------------------------------------------------
     1 Broy./Diag. 0.30E+00    0.1     1.38674792       -65.9858522665 -6.60E+01
     2 Broy./Diag. 0.30E+00    0.2     0.01154594       -65.9773508811  8.50E-03
     3 Broy./Diag. 0.30E+00    0.2     0.01800582       -65.9887601862 -1.14E-02
     4 Broy./Diag. 0.30E+00    0.2     0.00219754       -65.9922877283 -3.53E-03
     5 Broy./Diag. 0.30E+00    0.2     0.00026876       -65.9919589434  3.29E-04
     6 Broy./Diag. 0.30E+00    0.2     0.00043273       -65.9911368509  8.22E-04
     7 Broy./Diag. 0.30E+00    0.2     0.00011473       -65.9908859962  2.51E-04
     8 Broy./Diag. 0.30E+00    0.2     0.00001789       -65.9909322254 -4.62E-05

  *** SCF run converged in     8 steps ***


  Electronic density on regular grids:        -31.9999923089        0.0000076911
  Core density on regular grids:               31.9999994895       -0.0000005105
  Total charge density on r-space grids:        0.0000071806
  Total charge density g-space grids:           0.0000071806

  Overlap energy of the core charge distribution:               0.00000000000000
  Self energy of the core charge distribution:               -138.89582544120611
  Core Hamiltonian energy:                                     27.33365103851723
  Hartree energy:                                              56.70758057097032
  Exchange-correlation energy:                                -11.13633839370024

  Total energy:                                               -65.99093222541880

 ENERGY| Total FORCE_EVAL ( QS ) energy [a.u.]:              -65.990996147847696

 --------  Informations at step =     5 ------------
  Optimization Method        =                 BFGS
  Total Energy               =       -65.9909961478
  Internal Pressure [bar]    =     -3931.2933040407
  Real energy change         =        -0.0000226644
  Predicted change in energy =        -0.0000413291
  Scaling factor             =         0.7737240617
  Step size                  =         0.0211831614
  Trust radius               =         0.4724315332
  Decrease in energy         =                  YES
  Used time                  =                3.198

  Convergence check :
  Max. step size             =         0.0211831614
  Conv. limit for step size  =         1.0000000000
  Convergence in step size   =                  YES
  RMS step size              =         0.0085804772
  Conv. limit for RMS step   =         0.5000000000
  Convergence in RMS step    =                  YES
  Max. gradient              =         0.0029301013
  Conv. limit for gradients  =         0.0500000000
  Conv. in gradients         =                  YES
  RMS gradient               =         0.0016659058
  Conv. limit for RMS grad.  =         0.5000000000
  Conv. in RMS gradients     =                  YES
  Pressure Deviation [bar]   =     -3898.4400187189
  Pressure Tolerance [bar]   =      1000.0000000000
  Conv. for  PRESSURE        =                   NO
 ---------------------------------------------------

 --------------------------
 OPTIMIZATION STEP:      6
 --------------------------

 CELL| Volume [angstrom^3]:                                           164.246285
 CELL| Vector a [angstrom]:       6.242     0.000     0.000   |a| =     6.241515
 CELL| Vector b [angstrom]:       3.297     5.307     0.000   |b| =     6.247839
 CELL| Vector c [angstrom]:       3.297     1.898     4.958   |c| =     6.249280
 CELL| Angle (b,c), alpha [degree]:                                    57.567094
 CELL| Angle (a,c), beta  [degree]:                                    58.161615
 CELL| Angle (a,b), gamma [degree]:                                    58.154635
 CELL| Numerically orthorhombic:                                              NO

 Number of electrons:                                                         32
 Number of occupied orbitals:                                                 16
 Number of molecular orbitals:                                                16

 Number of orbital functions:                                                 55
 Number of independent orbital functions:                                     55

 Extrapolation method: initial_guess


 SCF WAVEFUNCTION OPTIMIZATION

  Step     Update method      Time    Convergence         Total energy    Change
  ------------------------------------------------------------------------------
     1 Broy./Diag. 0.30E+00    0.1     2.10712244       -65.9997784338 -6.60E+01
     2 Broy./Diag. 0.30E+00    0.2     0.01404249       -65.9804022789  1.94E-02
     3 Broy./Diag. 0.30E+00    0.3     0.01686445       -65.9882926694 -7.89E-03
     4 Broy./Diag. 0.30E+00    0.2     0.00060903       -65.9916648830 -3.37E-03
     5 Broy./Diag. 0.30E+00    0.3     0.00016629       -65.9921060868 -4.41E-04
     6 Broy./Diag. 0.30E+00    0.2     0.00025256       -65.9914514299  6.55E-04
     7 Broy./Diag. 0.30E+00    0.3     0.00003476       -65.9911872426  2.64E-04

  *** SCF run converged in     7 steps ***


  Electronic density on regular grids:        -32.0000176662       -0.0000176662
  Core density on regular grids:               31.9999994895       -0.0000005105
  Total charge density on r-space grids:       -0.0000181767
  Total charge density g-space grids:          -0.0000181767

  Overlap energy of the core charge distribution:               0.00000000000000
  Self energy of the core charge distribution:               -138.89582544120611
  Core Hamiltonian energy:                                     27.35108095380746
  Hartree energy:                                              56.69804658071395
  Exchange-correlation energy:                                -11.14448933589097

  Total energy:                                               -65.99118724257566

 ENERGY| Total FORCE_EVAL ( QS ) energy [a.u.]:              -65.991185398394720

 --------  Informations at step =     6 ------------
  Optimization Method        =                 BFGS
  Total Energy               =       -65.9911853984
  Internal Pressure [bar]    =     -1762.5295679666
  Real energy change         =        -0.0001892505
  Predicted change in energy =        -0.0001282517
  Scaling factor             =         0.7737240617
  Step size                  =         0.0463690161
  Trust radius               =         0.4724315332
  Decrease in energy         =                  YES
  Used time                  =                3.040

  Convergence check :
  Max. step size             =         0.0463690161
  Conv. limit for step size  =         1.0000000000
  Convergence in step size   =                  YES
  RMS step size              =         0.0195981163
  Conv. limit for RMS step   =         0.5000000000
  Convergence in RMS step    =                  YES
  Max. gradient              =         0.0025813390
  Conv. limit for gradients  =         0.0500000000
  Conv. in gradients         =                  YES
  RMS gradient               =         0.0015417760
  Conv. limit for RMS grad.  =         0.5000000000
  Conv. in RMS gradients     =                  YES
  Pressure Deviation [bar]   =     -1729.6762826448
  Pressure Tolerance [bar]   =      1000.0000000000
  Conv. for  PRESSURE        =                   NO
 ---------------------------------------------------

 --------------------------
 OPTIMIZATION STEP:      7
 --------------------------

 CELL| Volume [angstrom^3]:                                           162.563755
 CELL| Vector a [angstrom]:       6.218     0.000     0.000   |a| =     6.217591
 CELL| Vector b [angstrom]:       3.286     5.289     0.000   |b| =     6.227116
 CELL| Vector c [angstrom]:       3.287     1.886     4.943   |c| =     6.228409
 CELL| Angle (b,c), alpha [degree]:                                    57.610574
 CELL| Angle (a,c), beta  [degree]:                                    58.151357
 CELL| Angle (a,b), gamma [degree]:                                    58.145872
 CELL| Numerically orthorhombic:                                              NO

 Number of electrons:                                                         32
 Number of occupied orbitals:                                                 16
 Number of molecular orbitals:                                                16

 Number of orbital functions:                                                 55
 Number of independent orbital functions:                                     55

 Extrapolation method: initial_guess


 SCF WAVEFUNCTION OPTIMIZATION

  Step     Update method      Time    Convergence         Total energy    Change
  ------------------------------------------------------------------------------
     1 Broy./Diag. 0.30E+00    0.1     2.20658924       -65.9974668653 -6.60E+01
     2 Broy./Diag. 0.30E+00    0.2     0.01297946       -65.9812180614  1.62E-02
     3 Broy./Diag. 0.30E+00    0.2     0.01826295       -65.9896046559 -8.39E-03
     4 Broy./Diag. 0.30E+00    0.2     0.00385519       -65.9922506391 -2.65E-03
     5 Broy./Diag. 0.30E+00    0.2     0.00033429       -65.9923507871 -1.00E-04
     6 Broy./Diag. 0.30E+00    0.2     0.00054004       -65.9916773711  6.73E-04
     7 Broy./Diag. 0.30E+00    0.2     0.00009398       -65.9913915507  2.86E-04

  *** SCF run converged in     7 steps ***


  Electronic density on regular grids:        -32.0000320288       -0.0000320288
  Core density on regular grids:               31.9999994915       -0.0000005085
  Total charge density on r-space grids:       -0.0000325373
  Total charge density g-space grids:          -0.0000325373

  Overlap energy of the core charge distribution:               0.00000000000000
  Self energy of the core charge distribution:               -138.89582544120611
  Core Hamiltonian energy:                                     27.36670792033086
  Hartree energy:                                              56.68902522127439
  Exchange-correlation energy:                                -11.15129925114229

  Total energy:                                               -65.99139155074315

 ENERGY| Total FORCE_EVAL ( QS ) energy [a.u.]:              -65.991449745218716

 --------  Informations at step =     7 ------------
  Optimization Method        =                 BFGS
  Total Energy               =       -65.9914497452
  Internal Pressure [bar]    =       -84.4940902649
  Real energy change         =        -0.0002643468
  Predicted change in energy =        -0.0001590897
  Scaling factor             =         0.7737240617
  Step size                  =         0.0452084959
  Trust radius               =         0.4724315332
  Decrease in energy         =                  YES
  Used time                  =                3.069

  Convergence check :
  Max. step size             =         0.0452084959
  Conv. limit for step size  =         1.0000000000
  Convergence in step size   =                  YES
  RMS step size              =         0.0205043427
  Conv. limit for RMS step   =         0.5000000000
  Convergence in RMS step    =                  YES
  Max. gradient              =         0.0023731224
  Conv. limit for gradients  =         0.0500000000
  Conv. in gradients         =                  YES
  RMS gradient               =         0.0012773139
  Conv. limit for RMS grad.  =         0.5000000000
  Conv. in RMS gradients     =                  YES
  Pressure Deviation [bar]   =       -51.6408049431
  Pressure Tolerance [bar]   =      1000.0000000000
  Conv. for  PRESSURE        =                  YES
 ---------------------------------------------------

 *******************************************************************************
 ***                    GEOMETRY OPTIMIZATION COMPLETED                      ***
 *******************************************************************************

                    Reevaluating energy at the minimum

 CELL| Volume [angstrom^3]:                                           162.563755
 CELL| Vector a [angstrom]:       6.218     0.000     0.000   |a| =     6.217591
 CELL| Vector b [angstrom]:       3.286     5.289     0.000   |b| =     6.227116
 CELL| Vector c [angstrom]:       3.287     1.886     4.943   |c| =     6.228409
 CELL| Angle (b,c), alpha [degree]:                                    57.610574
 CELL| Angle (a,c), beta  [degree]:                                    58.151357
 CELL| Angle (a,b), gamma [degree]:                                    58.145872
 CELL| Numerically orthorhombic:                                              NO

 Number of electrons:                                                         32
 Number of occupied orbitals:                                                 16
 Number of molecular orbitals:                                                16

 Number of orbital functions:                                                 55
 Number of independent orbital functions:                                     55

 Extrapolation method: initial_guess


 SCF WAVEFUNCTION OPTIMIZATION

  Step     Update method      Time    Convergence         Total energy    Change
  ------------------------------------------------------------------------------
     1 Broy./Diag. 0.30E+00    0.1     0.00004125       -65.9914497452 -6.60E+01

  *** SCF run converged in     1 steps ***


  Electronic density on regular grids:        -32.0000000033       -0.0000000033
  Core density on regular grids:               31.9999994915       -0.0000005085
  Total charge density on r-space grids:       -0.0000005117
  Total charge density g-space grids:          -0.0000005117

  Overlap energy of the core charge distribution:               0.00000000000000
  Self energy of the core charge distribution:               -138.89582544120611
  Core Hamiltonian energy:                                     27.36672311278122
  Hartree energy:                                              56.68895533985685
  Exchange-correlation energy:                                -11.15130275665067

  Total energy:                                               -65.99144974521872

 ENERGY| Total FORCE_EVAL ( QS ) energy [a.u.]:              -65.991449745218716

 -------------------------------------------------------------------------------
 -                                                                             -
 -                                DBCSR STATISTICS                             -
 -                                                                             -
 -------------------------------------------------------------------------------
 COUNTER                                    TOTAL       BLAS       SMM       ACC
 flops inhomo. stacks                           0       0.0%      0.0%      0.0%
 flops total                         0.000000E+00       0.0%      0.0%      0.0%
 flops max/rank                      0.000000E+00       0.0%      0.0%      0.0%
 matmuls inhomo. stacks                         0       0.0%      0.0%      0.0%
 matmuls total                                  0       0.0%      0.0%      0.0%
 number of processed stacks                     0       0.0%      0.0%      0.0%
 average stack size                                     0.0       0.0       0.0
 marketing flops                     0.000000E+00
 -------------------------------------------------------------------------------
 -                                                                             -
 -                      DBCSR MESSAGE PASSING PERFORMANCE                      -
 -                                                                             -
 -------------------------------------------------------------------------------
 ROUTINE             CALLS      AVE VOLUME [Bytes]
 MP_Bcast                1                     12.
 MP_Allreduce        41224                      8.
 MP_Alltoall         51413                   1321.
 -------------------------------------------------------------------------------

 -------------------------------------------------------------------------------
 -                                                                             -
 -                                GRID STATISTICS                              -
 -                                                                             -
 -------------------------------------------------------------------------------
 LP    KERNEL             BACKEND                              COUNT     PERCENT
 4     collocate general  REF                                 460643      50.37%
 4     integrate general  REF                                 403959      44.17%
 7     integrate general  REF                                  49926       5.46%
 0     collocate general  REF                                     36       0.00%
 3     integrate general  REF                                     32       0.00%
 -------------------------------------------------------------------------------

 MEMORY| Estimated peak process memory [MiB]                                 226

 -------------------------------------------------------------------------------
 -                                                                             -
 -                         MESSAGE PASSING PERFORMANCE                         -
 -                                                                             -
 -------------------------------------------------------------------------------

 ROUTINE             CALLS      AVE VOLUME [Bytes]
 MP_Group               46
 MP_Bcast            20780                  25351.
 MP_Allreduce        20238                     38.
 MP_Sync                59
 MP_Alltoall          1613                 558643.
 MP_ISendRecv         8272                  34285.
 MP_Wait             10302
 MP_comm_split           7
 MP_ISend             2954                    347.
 MP_IRecv             2986                    343.
 MP_Recv             12875                   4389.
 -------------------------------------------------------------------------------


 -------------------------------------------------------------------------------
 -                                                                             -
 -                           R E F E R E N C E S                               -
 -                                                                             -
 -------------------------------------------------------------------------------
 
 CP2K version 8.2, the CP2K developers group (2021).
 CP2K is freely available from https://www.cp2k.org/ .

 Kuehne,Thomas D.; Iannuzzi,Marcella; Del Ben,Mauro;
 Rybkin,Vladimir V.; Seewald,Patrick; Stein,Frederick; Laino,Teodoro;
 Khaliullin,Rustam Z.; Schuett,Ole; Schiffmann,Florian; Golze,Dorothea;
 Wilhelm,Jan; Chulkov,Sergey; Bani-Hashemian,Mohammad Hossein;
 Weber,Valery; Borstnik,Urban; Taillefumier,Mathieu;
 Jakobovits,Alice Shoshana; Lazzaro,Alfio; Pabst,Hans; Mueller,Tiziano;
 Schade,Robert; Guidon,Manuel; Andermatt,Samuel; Holmberg,Nico;
 Schenter,Gregory K.; Hehn,Anna; Bussy,Augustin; Belleflamme,Fabian;
 Tabacchi,Gloria; Gloess,Andreas; Lass,Michael; Bethune,Iain;
 Mundy,Christopher J.; Plessl,Christian; Watkins,Matt;
 VandeVondele,Joost; Krack,Matthias; Hutter,Juerg. 
 The Journal of Chemical Physics, 152 (19), (2020). 
 CP2K: An electronic structure and molecular dynamics software package -
 Quickstep: Efficient and accurate electronic structure calculations.
 https://doi.org/10.1063/5.0007045

 Togo, Atsushi; Tanaka, Isao. arXiv, 1808.01590 (2018). 
 Spglib : a software library for crystal symmetry search.
 https://doi.org/xxx

 Schuett, Ole; Messmer, Peter; Hutter, Juerg; VandeVondele, Joost. 
 Electronic Structure Calculations on Graphics Processing Units, John
 Wiley & Sons, Ltd, 173-190 (2016). 
 GPU-Accelerated Sparse Matrix-Matrix Multiplication for
 Linear Scaling Density Functional Theory.
 https://doi.org/10.1002/9781118670712.ch8

 Heinecke, A; Henry, G; Hutchinson, M; Pabst, H. 
 Proceedings of Intl. Supercomputing Conference, 981-991 (2016). 
 LIBXSMM: Accelerating Small Matrix Multiplications
 by Runtime Code Generation.
 https://doi.org/10.1109/SC.2016.83

 Borstnik, U; VandeVondele, J; Weber, V; Hutter, J. 
 PARALLEL COMPUTING, 40 (5-6), 47-58 (2014). 
 Sparse matrix multiplication: The distributed block-compressed sparse
 row library.
 https://doi.org/10.1016/j.parco.2014.03.012

 Hutter, J; Iannuzzi, M; Schiffmann, F; VandeVondele, J. 
 WIREs Comput Mol Sci., 4 (1), 15-25 (2014). 
 CP2K: atomistic simulations of condensed matter systems.
 https://doi.org/10.1002/wcms.1159

 VandeVondele, J; Hutter, J. 
 JOURNAL OF CHEMICAL PHYSICS, 127 (11), 114105 (2007). 
 Gaussian basis sets for accurate calculations on molecular systems in
 gas and condensed phases.
 https://doi.org/10.1063/1.2770708

 Krack, M. 
 THEORETICAL CHEMISTRY ACCOUNTS, 114 (1-3), 145-152 (2005). 
 Pseudopotentials for H to Kr optimized for gradient-corrected
 exchange-correlation functionals.
 https://doi.org/10.1007/s00214-005-0655-y

 VandeVondele, J; Krack, M; Mohamed, F; Parrinello, M; Chassaing, T;
 Hutter, J. COMPUTER PHYSICS COMMUNICATIONS, 167 (2), 103-128 (2005). 
 QUICKSTEP: Fast and accurate density functional calculations using a
 mixed Gaussian and plane waves approach.
 https://doi.org/10.1016/j.cpc.2004.12.014

 Frigo, M; Johnson, SG. 
 PROCEEDINGS OF THE IEEE, 93 (2), 216-231 (2005). 
 The design and implementation of FFTW3.
 https://doi.org/10.1109/JPROC.2004.840301

 Hartwigsen, C; Goedecker, S; Hutter, J. 
 PHYSICAL REVIEW B, 58 (7), 3641-3662 (1998). 
 Relativistic separable dual-space Gaussian pseudopotentials from H to Rn.
 https://doi.org/10.1103/PhysRevB.58.3641

 Lippert, G; Hutter, J; Parrinello, M. 
 MOLECULAR PHYSICS, 92 (3), 477-487 (1997). 
 A hybrid Gaussian and plane wave density functional scheme.
 https://doi.org/10.1080/002689797170220

 Perdew, JP; Burke, K; Ernzerhof, M. 
 PHYSICAL REVIEW LETTERS, 77 (18), 3865-3868 (1996). 
 Generalized gradient approximation made simple.
 https://doi.org/10.1103/PhysRevLett.77.3865

 Goedecker, S; Teter, M; Hutter, J. 
 PHYSICAL REVIEW B, 54 (3), 1703-1710 (1996). 
 Separable dual-space Gaussian pseudopotentials.
 https://doi.org/10.1103/PhysRevB.54.1703


 -------------------------------------------------------------------------------
 -                                                                             -
 -                                T I M I N G                                  -
 -                                                                             -
 -------------------------------------------------------------------------------
 SUBROUTINE                       CALLS  ASD         SELF TIME        TOTAL TIME
                                MAXIMUM       AVERAGE  MAXIMUM  AVERAGE  MAXIMUM
 CP2K                                 1  1.0    0.005    0.010   26.201   26.202
 cp_cell_opt                          1  2.0    0.000    0.000   26.078   26.081
 geoopt_bfgs                          1  3.0    0.001    0.002   26.078   26.081
 cp_eval_at                           9  4.0    0.001    0.002   25.738   25.742
 qs_forces                            8  5.0    0.002    0.002   24.779   24.780
 qs_energies                          9  5.9    0.010    0.011   21.022   21.091
 scf_env_do_scf                       9  6.9    0.000    0.001   17.205   18.224
 scf_env_do_scf_inner_loop           65  8.0    0.014    0.025   17.205   18.224
 rebuild_ks_matrix                   73  9.7    0.000    0.000    5.192   10.312
 qs_ks_build_kohn_sham_matrix        73 10.7    0.032    0.033    5.192   10.312
 sum_up_and_integrate                73 11.7    0.003    0.004    3.586    8.691
 integrate_v_rspace                  73 12.7    0.009    0.026    3.583    8.687
 grid_integrate_task_list            73 13.7    3.272    8.375    3.272    8.375
 qs_ks_update_qs_env                 65  9.0    0.000    0.000    4.191    7.699
 rs_pw_transfer                     752 13.2    0.004    0.005    4.672    7.566
 mp_waitall_1                     10302 14.8    4.504    7.403    4.504    7.403
 rs_pw_transfer_RS2PW_100            83 12.7    0.043    0.046    4.467    7.359
 qs_rho_update_rho                   74  9.0    0.000    0.000    7.171    7.182
 calculate_rho_elec                  74 10.0    0.012    0.023    7.170    7.182
 density_rs2pw                       74 11.0    0.002    0.002    4.403    7.077
 qs_scf_new_mos_kp                   65  9.0    0.000    0.001    4.525    6.825
 do_general_diag_kp                  65 10.0    0.004    0.004    4.525    6.825
 grid_collocate_task_list            74 11.0    2.741    6.708    2.741    6.708
 dbcsr_desymmetrize_deep           3088 11.0    0.043    0.048    4.019    6.379
 mp_alltoall_i22                   8227 12.2    3.916    6.267    3.916    6.267
 mp_sum_dm                          496  6.5    1.876    2.869    1.876    2.869
 qs_ks_update_qs_env_forces           8  6.0    0.000    0.000    1.258    2.869
 write_kpoints_restart               65  9.0    0.107    1.202    1.647    2.672
 build_core_hamiltonian_matrix_       8  6.0    0.006    0.008    0.878    1.644
 init_scf_run                         9  6.9    0.000    0.002    1.565    1.598
 scf_env_initial_rho_setup            9  7.9    0.000    0.000    1.565    1.597
 mp_sum_d                         42147 12.5    1.067    1.590    1.067    1.590
 pw_transfer                       1604 13.2    0.034    0.035    1.321    1.482
 fft_wrap_pw1pw2                   1458 14.3    0.006    0.006    1.279    1.439
 calculate_ecore_overlap             17  7.0    0.000    0.000    0.818    1.330
 fft_wrap_pw1pw2_100                870 15.3    0.051    0.060    1.153    1.303
 fft3d_ps                          1458 16.3    0.398    0.465    1.081    1.293
 qs_vxc_create                       73 11.7    0.001    0.001    1.278    1.290
 xc_vxc_pw_create                    73 12.7    0.065    0.071    1.278    1.289
 copy_dbcsr_to_fm                  2828 10.0    0.030    0.031    1.205    1.256
 qs_energies_init_hamiltonians        9  6.9    0.000    0.000    1.052    1.056
 mp_sum_iv                          107  8.7    0.949    1.055    0.949    1.055
 qs_energies_compute_matrix_w         9  6.9    0.000    0.000    0.966    1.052
 dbcsr_complete_redistribute       5139 11.4    0.148    0.158    0.950    1.027
 xc_rho_set_and_dset_create          73 13.7    0.010    0.011    0.781    0.875
 mp_alltoall_z22v                  1458 18.3    0.520    0.871    0.520    0.871
 build_core_hamiltonian_matrix        9  7.9    0.007    0.007    0.458    0.831
 build_core_ppnl_forces               8  7.0    0.462    0.756    0.462    0.756
 qs_env_update_s_mstruct              9  7.9    0.000    0.000    0.485    0.688
 calculate_first_density_matrix       9  8.9    0.001    0.002    0.632    0.668
 calculate_rho_core                   9  8.9    0.001    0.004    0.411    0.637
 read_kpoints_restart                 8  9.9    0.006    0.016    0.585    0.605
 cp_fm_write_unformatted           2575  9.9    0.447    0.582    0.451    0.603
 cp_cfm_geeig                        65 11.0    0.001    0.001    0.591    0.593
 yz_to_x                            597 16.9    0.034    0.043    0.345    0.580
 xc_functional_eval                  73 14.7    0.000    0.000    0.460    0.554
 pbe_lda_eval                        73 15.7    0.460    0.554    0.460    0.554
 -------------------------------------------------------------------------------

 The number of warnings for this run is : 1
 
 -------------------------------------------------------------------------------
  **** **** ******  **  PROGRAM ENDED AT                 2021-06-03 15:07:04.468
 ***** ** ***  *** **   PROGRAM RAN ON                                   mpcl003
 **    ****   ******    PROGRAM RAN BY                                  pubo1141
 ***** **    ** ** **   PROGRAM PROCESS ID                                 15180
  **** **  *******  **  PROGRAM STOPPED IN /user/pubo1141/simulations/aiida_test
                                           s/cp2k_8.2/cell_opt_1kpoint_medium
