64   
1    

1    
  0.0100000000000000   0.0000000000000000   0.0000000000000000
  -0.0022217205   -0.0000000000   -0.0000000000
   0.0000020895   -0.0000000000   -0.0000000000
   0.0000090195   -0.0000000000   -0.0000000000
  -0.0000024205   -0.0000000000   -0.0000000000
   0.0000090195   -0.0000000000   -0.0000000000
  -0.0000024205   -0.0000000000   -0.0000000000
  -0.0000775505   -0.0000000000   -0.0000000000
   0.0000034695   -0.0000000000   -0.0000000000
  -0.0000834505    0.0000178500    0.0000178500
  -0.0000002205    0.0000013000    0.0000013000
  -0.0000831605    0.0000176700   -0.0000176700
  -0.0000001705    0.0000013200   -0.0000013200
  -0.0000831605   -0.0000176700    0.0000176700
  -0.0000001705   -0.0000013200    0.0000013200
  -0.0000834505   -0.0000178500   -0.0000178500
  -0.0000002205   -0.0000013000   -0.0000013000
   0.0000316195   -0.0000173400    0.0000310200
   0.0000319395   -0.0000175500   -0.0000313000
   0.0000057595   -0.0000013100   -0.0000124900
   0.0000057595   -0.0000013100    0.0000124500
   0.0000316195    0.0000173400   -0.0000310200
   0.0000319395    0.0000175500    0.0000313000
   0.0000057595    0.0000013100    0.0000124900
   0.0000057595    0.0000013100   -0.0000124500
   0.0000316195    0.0000310200   -0.0000173400
   0.0000319395   -0.0000313000   -0.0000175500
   0.0000316195   -0.0000310200    0.0000173400
   0.0000319395    0.0000313000    0.0000175500
   0.0000057595   -0.0000124900   -0.0000013100
   0.0000057595    0.0000124500   -0.0000013100
   0.0000057595    0.0000124900    0.0000013100
   0.0000057595   -0.0000124500    0.0000013100
  -0.0000031405    0.0000048600    0.0000048600
   0.0000427695    0.0000031800    0.0000031800
   0.0000035095    0.0000031800    0.0000023800
  -0.0000086805    0.0000085700    0.0000055200
   0.0000035095    0.0000023800    0.0000031800
  -0.0000086805    0.0000055200    0.0000085700
  -0.0000011705    0.0000054900    0.0000054900
   0.0005531195    0.0003272100    0.0003272100
  -0.0000011705   -0.0000054900   -0.0000054900
   0.0005531195   -0.0003272100   -0.0003272100
   0.0000035095   -0.0000023800   -0.0000031800
  -0.0000086805   -0.0000055200   -0.0000085700
   0.0000035095   -0.0000031800   -0.0000023800
  -0.0000086805   -0.0000085700   -0.0000055200
  -0.0000031405   -0.0000048600   -0.0000048600
   0.0000427695   -0.0000031800   -0.0000031800
  -0.0000086005   -0.0000054600    0.0000086500
   0.0000036095   -0.0000024600    0.0000033000
   0.0005475495   -0.0003180100    0.0003180100
  -0.0000011605   -0.0000054700    0.0000054700
   0.0000425995   -0.0000031600    0.0000031600
  -0.0000031405   -0.0000048400    0.0000048400
  -0.0000086005   -0.0000086500    0.0000054600
   0.0000036095   -0.0000033000    0.0000024600
  -0.0000086005    0.0000086500   -0.0000054600
   0.0000036095    0.0000033000   -0.0000024600
   0.0000425995    0.0000031600   -0.0000031600
  -0.0000031405    0.0000048400   -0.0000048400
   0.0005475495    0.0003180100   -0.0003180100
  -0.0000011605    0.0000054700   -0.0000054700
  -0.0000086005    0.0000054600   -0.0000086500
   0.0000036095    0.0000024600   -0.0000033000
