# Projected DOS for atomic kind Si1 at iteration step i = 0, E(Fermi) =     0.246606 a.u.
#     MO Eigenvalue [a.u.]      Occupation                 s                py                pz                px               d-2               d-1                d0               d+1               d+2
       1         -0.206833        1.000000        0.50000000        0.00000000        0.00000000        0.00000000        0.00000000        0.00000000        0.00000000        0.00000000        0.00000000
       2          0.246606        1.000000        0.00000000        0.12835001        0.12835001        0.12835001        0.03831666        0.03831666        0.00000000        0.03831666        0.00000000
       3          0.246606        1.000000        0.00000000        0.06286898        0.25669109        0.06548995        0.07663065        0.01955088        0.00000000        0.01876844        0.00000000
       4          0.246606        1.000000        0.00000000        0.19383103        0.00000892        0.19121007        0.00000266        0.05708244        0.00000000        0.05786488        0.00000000
       5          0.328876        0.000000        0.00000000        0.10840515        0.10840515        0.10840515        0.05826151        0.05826151        0.00000000        0.05826151        0.00000000
       6          0.328876        0.000000        0.00000000        0.10072984        0.20588877        0.01859679        0.11065340        0.00999471        0.00000000        0.05413651        0.00000000
       7          0.328876        0.000000        0.00000000        0.11608043        0.01092149        0.19821348        0.00586968        0.10652837        0.00000000        0.06238657        0.00000000
       8          0.390403        0.000000        0.50000000        0.00000000        0.00000000        0.00000000        0.00000000        0.00000000        0.00000000        0.00000000        0.00000000
       9          0.590245        0.000000        0.00000000        0.00000000        0.00000000        0.00000000        0.00000000        0.00000000        0.50000000        0.00000000        0.00000000
      10          0.590245        0.000000        0.00000000        0.00000000        0.00000000        0.00000000        0.00000000        0.00000000        0.00000000        0.00000000        0.50000000
      11          0.881537        0.000000        0.00000000        0.06942373        0.00000000        0.06944769        0.00000001        0.18059544        0.00000000        0.18053313        0.00000000
      12          0.881537        0.000000        0.00000000        0.02315722        0.09258095        0.02313326        0.24075238        0.06015694        0.00000000        0.06021926        0.00000000
      13          0.881537        0.000000        0.00000000        0.04629049        0.04629049        0.04629049        0.12037618        0.12037617        0.00000000        0.12037617        0.00000000
      14          1.218763        0.000000        0.00000000        0.00000000        0.00000000        0.00000000        0.00000000        0.00000000        0.50000000        0.00000000        0.00000000
      15          1.218763        0.000000        0.00000000        0.00000000        0.00000000        0.00000000        0.00000000        0.00000000        0.00000000        0.00000000        0.50000000
      16          1.258847        0.000000        0.00000000        0.11486930        0.11486930        0.11486929        0.05179737        0.05179737        0.00000000        0.05179737        0.00000000
      17          1.258847        0.000000        0.00000000        0.17412698        0.00001950        0.17046075        0.00000879        0.07686539        0.00000000        0.07851859        0.00000000
      18          1.258847        0.000000        0.00000000        0.05561118        0.22971865        0.05927740        0.10358638        0.02672979        0.00000000        0.02507659        0.00000000
      19          1.460816        0.000000        0.50000000        0.00000000        0.00000000        0.00000000        0.00000000        0.00000000        0.00000000        0.00000000        0.00000000
      20          1.648424        0.000000        0.00000000        0.11005888        0.11005888        0.11005888        0.05660778        0.05660778        0.00000000        0.05660778        0.00000000
      21          1.648426        0.000000        0.00000000        0.21637867        0.03226456        0.08153414        0.01659487        0.04193607        0.00000000        0.11129168        0.00000000
      22          1.648426        0.000000        0.00000000        0.00373957        0.18785369        0.13858411        0.09662021        0.07127901        0.00000000        0.00192340        0.00000000
      23          1.717220        0.000000        0.00000000        0.15869284        0.15869284        0.15869283        0.00797383        0.00797383        0.00000000        0.00797383        0.00000000
      24          1.717221        0.000000        0.00000000        0.13674824        0.30577684        0.03355347        0.01536432        0.00168596        0.00000000        0.00687117        0.00000000
      25          1.717221        0.000000        0.00000000        0.18063746        0.01160886        0.28383224        0.00058331        0.01426167        0.00000000        0.00907646        0.00000000
      26          3.617270        0.000000        0.50000000        0.00000000        0.00000000        0.00000000        0.00000000        0.00000000        0.00000000        0.00000000        0.00000000
