# Projected DOS for atomic kind Si2 at iteration step i = 0, E(Fermi) =     0.246606 a.u.
#     MO Eigenvalue [a.u.]      Occupation                 s                py                pz                px               d-2               d-1                d0               d+1               d+2
       1         -0.206833        1.000000        0.50000000        0.00000000        0.00000000        0.00000000        0.00000000        0.00000000        0.00000000        0.00000000        0.00000000
       2          0.246606        1.000000        0.00000000        0.12835000        0.12835001        0.12835000        0.03831666        0.03831666        0.00000000        0.03831666        0.00000000
       3          0.246606        1.000000        0.00000000        0.06591956        0.25668434        0.06244612        0.07662864        0.01864220        0.00000000        0.01967914        0.00000000
       4          0.246606        1.000000        0.00000000        0.19078045        0.00001567        0.19425390        0.00000468        0.05799112        0.00000000        0.05695418        0.00000000
       5          0.328876        0.000000        0.00000000        0.10840515        0.10840515        0.10840515        0.05826151        0.05826151        0.00000000        0.05826151        0.00000000
       6          0.328876        0.000000        0.00000000        0.09591471        0.20790669        0.02139399        0.11173791        0.01149804        0.00000000        0.05154865        0.00000000
       7          0.328876        0.000000        0.00000000        0.12089555        0.00890357        0.19541627        0.00478516        0.10502503        0.00000000        0.06497442        0.00000000
       8          0.390403        0.000000        0.50000000        0.00000000        0.00000000        0.00000000        0.00000000        0.00000000        0.00000000        0.00000000        0.00000000
       9          0.590245        0.000000        0.00000000        0.00000000        0.00000000        0.00000000        0.00000000        0.00000000        0.50000000        0.00000000        0.00000000
      10          0.590245        0.000000        0.00000000        0.00000000        0.00000000        0.00000000        0.00000000        0.00000000        0.00000000        0.00000000        0.50000000
      11          0.881537        0.000000        0.00000000        0.02314179        0.09258095        0.02314868        0.24075238        0.06019705        0.00000000        0.06017914        0.00000000
      12          0.881537        0.000000        0.00000000        0.06943916        0.00000000        0.06943227        0.00000000        0.18055533        0.00000000        0.18057324        0.00000000
      13          0.881537        0.000000        0.00000000        0.04629049        0.04629049        0.04629049        0.12037618        0.12037617        0.00000000        0.12037617        0.00000000
      14          1.218763        0.000000        0.00000000        0.00000000        0.00000000        0.00000000        0.00000000        0.00000000        0.50000000        0.00000000        0.00000000
      15          1.218763        0.000000        0.00000000        0.00000000        0.00000000        0.00000000        0.00000000        0.00000000        0.00000000        0.00000000        0.50000000
      16          1.258847        0.000000        0.00000000        0.11486930        0.11486930        0.11486930        0.05179737        0.05179737        0.00000000        0.05179737        0.00000000
      17          1.258847        0.000000        0.00000000        0.17481542        0.00003717        0.16975465        0.00001676        0.07654698        0.00000000        0.07882902        0.00000000
      18          1.258847        0.000000        0.00000000        0.05492273        0.22970099        0.05998351        0.10357842        0.02704820        0.00000000        0.02476615        0.00000000
      19          1.460816        0.000000        0.50000000        0.00000000        0.00000000        0.00000000        0.00000000        0.00000000        0.00000000        0.00000000        0.00000000
      20          1.648424        0.000000        0.00000000        0.11005889        0.11005888        0.11005888        0.05660778        0.05660778        0.00000000        0.05660778        0.00000000
      21          1.648426        0.000000        0.00000000        0.21774907        0.03654401        0.07588430        0.01879595        0.03903014        0.00000000        0.11199653        0.00000000
      22          1.648426        0.000000        0.00000000        0.00236918        0.18357425        0.14423395        0.09441913        0.07418494        0.00000000        0.00121856        0.00000000
      23          1.717220        0.000000        0.00000000        0.15869283        0.15869284        0.15869282        0.00797383        0.00797383        0.00000000        0.00797383        0.00000000
      24          1.717221        0.000000        0.00000000        0.15776660        0.29658567        0.02172628        0.01490249        0.00109168        0.00000000        0.00792727        0.00000000
      25          1.717221        0.000000        0.00000000        0.15961910        0.02080002        0.29565943        0.00104514        0.01485595        0.00000000        0.00802036        0.00000000
      26          3.617270        0.000000        0.50000000        0.00000000        0.00000000        0.00000000        0.00000000        0.00000000        0.00000000        0.00000000        0.00000000
