 DBCSR| CPU Multiplication driver                                           XSMM (U)
 DBCSR| Multrec recursion limit                                              512 (U)
 DBCSR| Multiplication stack size                                           1000 (D)
 DBCSR| Maximum elements for images                                    UNLIMITED (U)
 DBCSR| Multiplicative factor virtual images                                   1 (U)
 DBCSR| Use multiplication densification                                       T (D)
 DBCSR| Multiplication size stacks                                             3 (U)
 DBCSR| Use memory pool for CPU allocation                                     F (U)
 DBCSR| Number of 3D layers                                               SINGLE (U)
 DBCSR| Use MPI memory allocation                                              F (U)
 DBCSR| Use RMA algorithm                                                      F (U)
 DBCSR| Use Communication thread                                               T (U)
 DBCSR| Communication thread load                                             45 (D)
 DBCSR| MPI: My process id                                                     0
 DBCSR| MPI: Number of processes                                              16
 DBCSR| OMP: Current number of threads                                        12
 DBCSR| OMP: Max number of threads                                            12
 DBCSR| Split modifier for TAS multiplication algorithm                  1.0E+00 (U)


  **** **** ******  **  PROGRAM STARTED AT               2026-06-29 15:56:20.020
 ***** ** ***  *** **   PROGRAM STARTED ON                                 c0266
 **    ****   ******    PROGRAM STARTED BY                                u12590
 ***** **    ** ** **   PROGRAM PROCESS ID                               1771268
  **** **  *******  **  PROGRAM STARTED IN /mnt/lustre-grete/usr/u12590/test/for
                                           ce/cp2k2024

 CP2K| version string:                                       CP2K version 2024.1
 CP2K| source code revision number:                                             
 CP2K| cp2kflags: omp libint fftw3 libxc elpa parallel scalapack xsmm spglib sir
 CP2K|            ius libvori libbqb
 CP2K| is freely available from                            https://www.cp2k.org/
 CP2K| Program compiled at                                   2025-04-18 00:41:47
 CP2K| Program compiled on                                                 c0233
 CP2K| Program compiled for                                               x86_64
 CP2K| Data directory path    /sw/rev/25.04/sapphirerapids_opx_rocky8/linux-rock
 CP2K| Input file name                                                  aiida.in

 GLOBAL| Force Environment number                                              1
 GLOBAL| Basis set file name                                           BASIS_SET
 GLOBAL| Potential file name                                      GTH_POTENTIALS
 GLOBAL| MM Potential file name                                     MM_POTENTIAL
 GLOBAL| Coordinate file name                                      __STD_INPUT__
 GLOBAL| Method name                                                        CP2K
 GLOBAL| Project name                                                   Si_bulk8
 GLOBAL| Run type                                                   ENERGY_FORCE
 GLOBAL| FFT library                                                       FFTW3
 GLOBAL| Diagonalization library                                            ELPA
 GLOBAL| DGEMM library                                                      BLAS
 GLOBAL| Minimum number of eigenvectors for ELPA usage                        16
 GLOBAL| Orthonormality check for eigenvectors                          DISABLED
 GLOBAL| Matrix multiplication library                                 ScaLAPACK
 GLOBAL| All-to-all communication in single precision                          F
 GLOBAL| FFTs using library dependent lengths                                  F
 GLOBAL| Grid backend                                                       AUTO
 GLOBAL| Global print level                                                  LOW
 GLOBAL| MPI I/O enabled                                                       T
 GLOBAL| Total number of message passing processes                            16
 GLOBAL| Number of threads for this process                                   12
 GLOBAL| This output is from process                                           0
 GLOBAL| Stack size for threads created by OpenMP (OMP_STACKSIZE)        default
 GLOBAL| CPU model name                           Intel(R) Xeon(R) Platinum 8468
 GLOBAL| CPUID                                                              1003

 MEMORY| system memory details [Kb]
 MEMORY|                        rank 0           min           max       average
 MEMORY| MemTotal            527928728     527928728     527928728     527928728
 MEMORY| MemFree             509446676     509446676     509446676     509446676
 MEMORY| Buffers                 33264         33264         33264         33264
 MEMORY| Cached               12032256      12032256      12032256      12032256
 MEMORY| Slab                  2218188       2218188       2218188       2218188
 MEMORY| SReclaimable           393460        393460        393460        393460
 MEMORY| MemLikelyFree       521905656     521905656     521905656     521905656


 GENERATE|  Preliminary Number of Bonds generated:                             0
 GENERATE|  Achieved consistency in connectivity generation.

 *******************************************************************************
 *******************************************************************************
 **                                                                           **
 **     #####                         ##              ##                      **
 **    ##   ##            ##          ##              ##                      **
 **   ##     ##                       ##            ######                    **
 **   ##     ##  ##   ##  ##   #####  ##  ##   ####   ##    #####    #####    **
 **   ##     ##  ##   ##  ##  ##      ## ##   ##      ##   ##   ##  ##   ##   **
 **   ##  ## ##  ##   ##  ##  ##      ####     ###    ##   ######   ######    **
 **    ##  ###   ##   ##  ##  ##      ## ##      ##   ##   ##       ##        **
 **     #######   #####   ##   #####  ##  ##  ####    ##    #####   ##        **
 **           ##                                                    ##        **
 **                                                                           **
 **                                                ... make the atoms dance   **
 **                                                                           **
 **            Copyright (C) by CP2K developers group (2000-2024)             **
 **                      J. Chem. Phys. 152, 194103 (2020)                    **
 **                                                                           **
 *******************************************************************************


 TOTAL NUMBERS AND MAXIMUM NUMBERS

  Total number of            - Atomic kinds:                                   1
                             - Atoms:                                          8
                             - Shell sets:                                    16
                             - Shells:                                        40
                             - Primitive Cartesian functions:                 40
                             - Cartesian basis functions:                    112
                             - Spherical basis functions:                    104

  Maximum angular momentum of- Orbital basis functions:                        2
                             - Local part of the GTH pseudopotential:          0
                             - Non-local part of the GTH pseudopotential:      2


 SCF PARAMETERS         Density guess:                                    ATOMIC
                        --------------------------------------------------------
                        max_scf:                                             300
                        max_scf_history:                                       0
                        max_diis:                                              4
                        --------------------------------------------------------
                        eps_scf:                                        1.00E-07
                        eps_scf_history:                                0.00E+00
                        eps_diis:                                       1.00E-01
                        eps_eigval:                                     1.00E-05
                        --------------------------------------------------------
                        level_shift [a.u.]:                             0.000000
                        --------------------------------------------------------
                        Mixing method:                            BROYDEN_MIXING
                                                charge density mixing in g-space
                        --------------------------------------------------------
                        No outer SCF

 Number of electrons:                                                         32
 Number of occupied orbitals:                                                 16
 Number of molecular orbitals:                                                16

 Number of orbital functions:                                                104
 Number of independent orbital functions:                                    104

 Extrapolation method: initial_guess


 SCF WAVEFUNCTION OPTIMIZATION

  Step     Update method      Time    Convergence         Total energy    Change
  ------------------------------------------------------------------------------
     1 NoMix/Diag. 0.40E+00    0.1     0.75558761       -32.2320842292 -3.22E+01
     2 Broy./Diag. 0.40E+00    0.1     0.05667972       -31.1418142582  1.09E+00
     3 Broy./Diag. 0.40E+00    0.1     0.09691462       -31.1974004672 -5.56E-02
     4 Broy./Diag. 0.40E+00    0.1     0.00245608       -31.3378474112 -1.40E-01
     5 Broy./Diag. 0.40E+00    0.1     0.00235460       -31.3009654429  3.69E-02
     6 Broy./Diag. 0.40E+00    0.1     0.00007565       -31.2972158943  3.75E-03
     7 Broy./Diag. 0.40E+00    0.1     0.00009004       -31.2977293749 -5.13E-04
     8 Broy./Diag. 0.40E+00    0.1     0.00000186       -31.2978454163 -1.16E-04
     9 Broy./Diag. 0.40E+00    0.1     0.00000252       -31.2978835492 -3.81E-05
    10 Broy./Diag. 0.40E+00    0.1     0.00000001       -31.2978852702 -1.72E-06

  *** SCF run converged in    10 steps ***


  Electronic density on regular grids:        -31.9999999888        0.0000000112
  Core density on regular grids:               31.9999999938       -0.0000000062
  Total charge density on r-space grids:        0.0000000050
  Total charge density g-space grids:           0.0000000050

  Overlap energy of the core charge distribution:               0.00000000005320
  Self energy of the core charge distribution:                -82.06393942512820
  Core Hamiltonian energy:                                     18.06858429705957
  Hartree energy:                                              42.41172817788262
  Exchange-correlation energy:                                 -9.71425832002542

  Total energy:                                               -31.29788527015823

 ENERGY| Total FORCE_EVAL ( QS ) energy [a.u.]:              -31.297885372784116

 ATOMIC FORCES in [a.u.]

 # Atom   Kind   Element          X              Y              Z
      1      1      Si          0.00000000     0.00000000     0.00000000
      2      1      Si          0.00000000     0.00000001     0.00000001
      3      1      Si          0.00000001     0.00000001     0.00000000
      4      1      Si          0.00000001     0.00000000     0.00000001
      5      1      Si         -0.00000001    -0.00000001    -0.00000001
      6      1      Si         -0.00000001    -0.00000001    -0.00000001
      7      1      Si         -0.00000001    -0.00000001    -0.00000001
      8      1      Si         -0.00000001    -0.00000001    -0.00000001
 SUM OF ATOMIC FORCES          -0.00000000    -0.00000000    -0.00000000     0.00000000

 -------------------------------------------------------------------------------
 -                                                                             -
 -                                DBCSR STATISTICS                             -
 -                                                                             -
 -------------------------------------------------------------------------------
 COUNTER                                    TOTAL       BLAS       SMM       ACC
 flops    13 x    13 x    16              2141568       0.0%    100.0%      0.0%     
 flops inhomo. stacks                           0       0.0%      0.0%      0.0%
 flops total                         2.141568E+06       0.0%    100.0%      0.0%
 flops max/rank                    178.464000E+03       0.0%    100.0%      0.0%
 matmuls inhomo. stacks                         0       0.0%      0.0%      0.0%
 matmuls total                                396       0.0%    100.0%      0.0%
 number of processed stacks                   308       0.0%    100.0%      0.0%
 average stack size                                     0.0       1.3       0.0
 marketing flops                     3.807232E+06
 -------------------------------------------------------------------------------
 # multiplications                             11
 max memory usage/rank               3.336491E+09
 # max total images/rank                        1
 # max 3D layers                                1
 # MPI messages exchanged                    1056
 MPI messages size (bytes):
  total size                       878.592000E+03
  min size                           0.000000E+00
  max size                           3.328000E+03
  average size                     832.000000E+00
 MPI breakdown and total messages size (bytes):
             size <=      128                 792                        0
       128 < size <=     8192                 264                   878592
      8192 < size <=    32768                   0                        0
     32768 < size <=   131072                   0                        0
    131072 < size <=  4194304                   0                        0
   4194304 < size <= 16777216                   0                        0
  16777216 < size                               0                        0
 -------------------------------------------------------------------------------
 -                                                                             -
 -                      DBCSR MESSAGE PASSING PERFORMANCE                      -
 -                                                                             -
 -------------------------------------------------------------------------------
 ROUTINE             CALLS      AVE VOLUME [Bytes]
 MP_Bcast                2                     12.
 MP_Allreduce           99                     11.
 MP_Alltoall           238                   2519.
 MP_ISend              176                    484.
 MP_IRecv              176                     65.
 -------------------------------------------------------------------------------

 -------------------------------------------------------------------------------
 -                                                                             -
 -                                DBM STATISTICS                               -
 -                                                                             -
 -------------------------------------------------------------------------------
    M  x    N  x    K                                          COUNT     PERCENT
 -------------------------------------------------------------------------------

 -------------------------------------------------------------------------------
 -                                                                             -
 -                                GRID STATISTICS                              -
 -                                                                             -
 -------------------------------------------------------------------------------
 LP    KERNEL             BACKEND                              COUNT     PERCENT
 2     collocate ortho    CPU                                 119152      37.34%
 2     integrate ortho    CPU                                 108320      33.95%
 3     integrate ortho    CPU                                  45392      14.22%
 3     collocate ortho    CPU                                  38016      11.91%
 4     integrate ortho    CPU                                   5616       1.76%
 4     collocate ortho    CPU                                   2376       0.74%
 5     integrate ortho    CPU                                    216       0.07%
 0     collocate general  CPU                                      8       0.00%
 1     integrate general  CPU                                      8       0.00%
 -------------------------------------------------------------------------------

 MEMORY| Estimated peak process memory [MiB]                                 281

 -------------------------------------------------------------------------------
 -                                                                             -
 -                         MESSAGE PASSING PERFORMANCE                         -
 -                                                                             -
 -------------------------------------------------------------------------------

 ROUTINE             CALLS      AVE VOLUME [Bytes]
 MP_Group                4
 MP_Bcast               65                3620868.
 MP_Allreduce          625                    123.
 MP_Sync                14
 MP_Alltoall           143                 371071.
 MP_SendRecv           675                  40099.
 MP_ISendRecv          675                  40099.
 MP_Wait               675
 MP_comm_split          10
 -------------------------------------------------------------------------------


 -------------------------------------------------------------------------------
 -                                                                             -
 -                           R E F E R E N C E S                               -
 -                                                                             -
 -------------------------------------------------------------------------------
 
 CP2K version 2024.1, the CP2K developers group (2024).
 CP2K is freely available from https://www.cp2k.org/ .

 Kuehne,Thomas D.; Iannuzzi,Marcella; Del Ben,Mauro;
 Rybkin,Vladimir V.; Seewald,Patrick; Stein,Frederick; Laino,Teodoro;
 Khaliullin,Rustam Z.; Schuett,Ole; Schiffmann,Florian; Golze,Dorothea;
 Wilhelm,Jan; Chulkov,Sergey; Bani-Hashemian,Mohammad Hossein;
 Weber,Valery; Borstnik,Urban; Taillefumier,Mathieu;
 Jakobovits,Alice Shoshana; Lazzaro,Alfio; Pabst,Hans; Mueller,Tiziano;
 Schade,Robert; Guidon,Manuel; Andermatt,Samuel; Holmberg,Nico;
 Schenter,Gregory K.; Hehn,Anna; Bussy,Augustin; Belleflamme,Fabian;
 Tabacchi,Gloria; Gloess,Andreas; Lass,Michael; Bethune,Iain;
 Mundy,Christopher J.; Plessl,Christian; Watkins,Matt;
 VandeVondele,Joost; Krack,Matthias; Hutter,Juerg. 
 The Journal of Chemical Physics, 152 (19), (2020). 
 CP2K: An electronic structure and molecular dynamics software package -
 Quickstep: Efficient and accurate electronic structure calculations.
 https://doi.org/10.1063/5.0007045

 Schuett, Ole; Messmer, Peter; Hutter, Juerg; VandeVondele, Joost. 
 Electronic Structure Calculations on Graphics Processing Units, John
 Wiley & Sons, Ltd, 173-190 (2016). 
 GPU-Accelerated Sparse Matrix-Matrix Multiplication for
 Linear Scaling Density Functional Theory.
 https://doi.org/10.1002/9781118670712.ch8

 Heinecke, A; Henry, G; Hutchinson, M; Pabst, H. 
 Proceedings of Intl. Supercomputing Conference, 981-991 (2016). 
 LIBXSMM: Accelerating Small Matrix Multiplications
 by Runtime Code Generation.
 https://doi.org/10.1109/SC.2016.83

 Borstnik, U; VandeVondele, J; Weber, V; Hutter, J. 
 PARALLEL COMPUTING, 40 (5-6), 47-58 (2014). 
 Sparse matrix multiplication: The distributed block-compressed sparse
 row library.
 https://doi.org/10.1016/j.parco.2014.03.012

 Hutter, J; Iannuzzi, M; Schiffmann, F; VandeVondele, J. 
 WIREs Comput Mol Sci., 4 (1), 15-25 (2014). 
 CP2K: atomistic simulations of condensed matter systems.
 https://doi.org/10.1002/wcms.1159

 Marek, A; Blum, V; Johanni, R; Havu, V; Lang, B; Auckenthaler, T;
 Heinecke, A; Bungartz, H; Lederer, H. 
 Journal of Physics: Condensed Matter, 26 (21), (2014). 
 The ELPA library: scalable parallel eigenvalue solutions for
 electronic structure
 theory and computational science.
 https://doi.org/10.1088/0953-8984/26/21/213201

 Krack, M. 
 THEORETICAL CHEMISTRY ACCOUNTS, 114 (1-3), 145-152 (2005). 
 Pseudopotentials for H to Kr optimized for gradient-corrected
 exchange-correlation functionals.
 https://doi.org/10.1007/s00214-005-0655-y

 VandeVondele, J; Krack, M; Mohamed, F; Parrinello, M; Chassaing, T;
 Hutter, J. COMPUTER PHYSICS COMMUNICATIONS, 167 (2), 103-128 (2005). 
 QUICKSTEP: Fast and accurate density functional calculations using a
 mixed Gaussian and plane waves approach.
 https://doi.org/10.1016/j.cpc.2004.12.014

 Frigo, M; Johnson, SG. 
 PROCEEDINGS OF THE IEEE, 93 (2), 216-231 (2005). 
 The design and implementation of FFTW3.
 https://doi.org/10.1109/JPROC.2004.840301

 Hartwigsen, C; Goedecker, S; Hutter, J. 
 PHYSICAL REVIEW B, 58 (7), 3641-3662 (1998). 
 Relativistic separable dual-space Gaussian pseudopotentials from H to Rn.
 https://doi.org/10.1103/PhysRevB.58.3641

 Lippert, G; Hutter, J; Parrinello, M. 
 MOLECULAR PHYSICS, 92 (3), 477-487 (1997). 
 A hybrid Gaussian and plane wave density functional scheme.
 https://doi.org/10.1080/002689797170220

 Goedecker, S; Teter, M; Hutter, J. 
 PHYSICAL REVIEW B, 54 (3), 1703-1710 (1996). 
 Separable dual-space Gaussian pseudopotentials.
 https://doi.org/10.1103/PhysRevB.54.1703


 -------------------------------------------------------------------------------
 -                                                                             -
 -                                T I M I N G                                  -
 -                                                                             -
 -------------------------------------------------------------------------------
 SUBROUTINE                       CALLS  ASD         SELF TIME        TOTAL TIME
                                MAXIMUM       AVERAGE  MAXIMUM  AVERAGE  MAXIMUM
 CP2K                                 1  1.0    0.080    0.094    1.681    1.682
 qs_forces                            1  2.0    0.003    0.004    1.396    1.396
 qs_energies                          1  3.0    0.014    0.015    1.311    1.311
 scf_env_do_scf                       1  4.0    0.000    0.000    1.104    1.105
 scf_env_do_scf_inner_loop           10  5.0    0.007    0.007    1.104    1.105
 qs_scf_new_mos                      10  6.0    0.002    0.003    0.470    0.530
 qs_rho_update_rho_low               11  6.0    0.000    0.000    0.375    0.376
 calculate_rho_elec                  11  7.0    0.002    0.002    0.375    0.376
 rebuild_ks_matrix                   11  6.7    0.000    0.000    0.280    0.334
 qs_ks_build_kohn_sham_matrix        11  7.7    0.006    0.010    0.280    0.334
 eigensolver                         10  7.0    0.002    0.002    0.324    0.324
 cp_fm_diag_elpa                     10  8.0    0.000    0.000    0.317    0.318
 cp_fm_redistribute_end              10  9.0    0.158    0.313    0.158    0.313
 cp_fm_diag_elpa_base                10  9.0    0.154    0.309    0.155    0.309
 qs_ks_update_qs_env                 10  6.0    0.000    0.000    0.250    0.297
 sum_up_and_integrate                11  8.7    0.000    0.000    0.229    0.283
 integrate_v_rspace                  11  9.7    0.002    0.002    0.227    0.281
 grid_collocate_task_list            11  8.0    0.229    0.278    0.229    0.278
 grid_integrate_task_list            11 10.7    0.157    0.211    0.157    0.211
 density_rs2pw                       11  8.0    0.001    0.001    0.143    0.209
 pw_transfer                        142  9.8    0.003    0.003    0.145    0.148
 fft_wrap_pw1pw2                    120 10.8    0.000    0.000    0.140    0.142
 transfer_rs2pw                      45  9.0    0.000    0.000    0.075    0.141
 transfer_rs2pw_150                  12  9.8    0.006    0.008    0.069    0.135
 mp_sendrecv_dv                     675 11.0    0.067    0.131    0.067    0.131
 copy_dbcsr_to_fm                    11  6.8    0.000    0.001    0.068    0.125
 fft3d_ps                           120 12.8    0.053    0.057    0.112    0.113
 mp_alltoall_i22                     34  9.5    0.050    0.107    0.050    0.107
 dbcsr_desymmetrize_deep             11  7.8    0.000    0.000    0.050    0.107
 qs_init_subsys                       1  2.0    0.044    0.044    0.095    0.095
 cp_dbcsr_plus_fm_fm_t_native        11  7.8    0.000    0.000    0.088    0.089
 init_scf_run                         1  4.0    0.000    0.000    0.085    0.085
 qs_energies_init_hamiltonians        1  4.0    0.010    0.013    0.084    0.084
 calculate_dm_sparse                 10  7.0    0.000    0.000    0.079    0.081
 fft_wrap_pw1pw2_150                 54 11.1    0.004    0.004    0.073    0.076
 scf_env_initial_rho_setup            1  5.0    0.000    0.000    0.074    0.074
 dbcsr_multiply_generic              11  8.8    0.002    0.002    0.069    0.070
 potential_pw2rs                     11 10.7    0.000    0.000    0.068    0.068
 build_core_hamiltonian_matrix        1  5.0    0.005    0.006    0.053    0.057
 create_qs_kind_set                   1  2.0    0.000    0.000    0.047    0.047
 read_qs_kind                         1  3.0    0.022    0.027    0.047    0.047
 build_core_hamiltonian_matrix_       1  3.0    0.000    0.000    0.034    0.044
 topology_control                     1  2.0    0.012    0.012    0.040    0.040
 dbcsr_create_new                   212 10.0    0.023    0.024    0.037    0.039
 qs_env_setup                         1  3.0    0.008    0.008    0.039    0.039
 qs_ks_update_qs_env_forces           1  3.0    0.000    0.000    0.031    0.038
 -------------------------------------------------------------------------------

 The number of warnings for this run is : 0
 
 -------------------------------------------------------------------------------
  **** **** ******  **  PROGRAM ENDED AT                 2026-06-29 15:56:22.693
 ***** ** ***  *** **   PROGRAM RAN ON                                     c0266
 **    ****   ******    PROGRAM RAN BY                                    u12590
 ***** **    ** ** **   PROGRAM PROCESS ID                               1771268
  **** **  *******  **  PROGRAM STOPPED IN /mnt/lustre-grete/usr/u12590/test/for
                                           ce/cp2k2024
