       4
 i =        1, E =       -65.9870606306
 Cs         2.3377262988        2.3376801153        2.3376339318
 Cs         7.0132237807        7.0130852294        7.0129466781
 Cs         4.6754750397        4.6753826723        4.6752903050
 Sb        -0.0000000000        0.0000000000        0.0000000000
       4
 i =        2, E =       -65.9870945487
 Cs         2.3405766619        2.3368167838        2.3330736417
 Cs         7.0255993006        7.0142385629        7.0029316259
 Cs         4.6831098253        4.6755373201        4.6680122525
 Sb         0.0000072175        0.0000008650        0.0000008552
       4
 i =        3, E =       -65.9870948673
 Cs         2.3406867935        2.3367562529        2.3328630077
 Cs         7.0263109269        7.0143573346        7.0025201760
 Cs         4.6835212246        4.6755665906        4.6677013571
 Sb         0.0000073002        0.0000009138        0.0000008996
