 DBCSR| CPU Multiplication driver                                           XSMM (U)
 DBCSR| Multrec recursion limit                                              512 (U)
 DBCSR| Multiplication stack size                                           1000 (D)
 DBCSR| Maximum elements for images                                    UNLIMITED (U)
 DBCSR| Multiplicative factor virtual images                                   1 (U)
 DBCSR| Use multiplication densification                                       T (D)
 DBCSR| Multiplication size stacks                                             3 (U)
 DBCSR| Use memory pool for CPU allocation                                     F (U)
 DBCSR| Number of 3D layers                                               SINGLE (U)
 DBCSR| Use MPI memory allocation                                              F (U)
 DBCSR| Use RMA algorithm                                                      F (U)
 DBCSR| Use Communication thread                                               T (U)
 DBCSR| Communication thread load                                             87 (D)
 DBCSR| MPI: My process id                                                     0
 DBCSR| MPI: Number of processes                                              96
 DBCSR| OMP: Current number of threads                                         1
 DBCSR| OMP: Max number of threads                                             1
 DBCSR| Split modifier for TAS multiplication algorithm                  1.0E+00 (U)


  **** **** ******  **  PROGRAM STARTED AT               2024-07-05 08:12:34.593
 ***** ** ***  *** **   PROGRAM STARTED ON                                 c0268
 **    ****   ******    PROGRAM STARTED BY                              nichdsas
 ***** **    ** ** **   PROGRAM PROCESS ID                                594420
  **** **  *******  **  PROGRAM STARTED IN /scratch-grete/usr/nichdsas/test_pars
                                           er/cp2k-2024.1/cell_opt_max_steps_low

 CP2K| version string:                                       CP2K version 2024.1
 CP2K| source code revision number:                                             
 CP2K| cp2kflags: omp libint fftw3 libxc elpa parallel scalapack xsmm spglib sir
 CP2K|            ius libvori libbqb
 CP2K| is freely available from                            https://www.cp2k.org/
 CP2K| Program compiled at                                   2024-05-28 17:35:28
 CP2K| Program compiled on                                                      
 CP2K| Program compiled for                                               x86_64
 CP2K| Data directory path    /sw/rev/24.05/sapphirerapids_opa_rocky8/linux-rock
 CP2K| Input file name                                                 aiida.inp

 GLOBAL| Force Environment number                                              1
 GLOBAL| Basis set file name                                        BASIS_MOLOPT
 GLOBAL| Potential file name                                      GTH_POTENTIALS
 GLOBAL| MM Potential file name                                     MM_POTENTIAL
 GLOBAL| Coordinate file name                                      __STD_INPUT__
 GLOBAL| Method name                                                        CP2K
 GLOBAL| Project name                                                      aiida
 GLOBAL| Run type                                                       CELL_OPT
 GLOBAL| FFT library                                                       FFTW3
 GLOBAL| Diagonalization library                                            ELPA
 GLOBAL| DGEMM library                                                      BLAS
 GLOBAL| Minimum number of eigenvectors for ELPA usage                        16
 GLOBAL| Orthonormality check for eigenvectors                          DISABLED
 GLOBAL| Matrix multiplication library                                 ScaLAPACK
 GLOBAL| All-to-all communication in single precision                          F
 GLOBAL| FFTs using library dependent lengths                                  F
 GLOBAL| Grid backend                                                       AUTO
 GLOBAL| Global print level                                                  LOW
 GLOBAL| MPI I/O enabled                                                       T
 GLOBAL| Total number of message passing processes                            96
 GLOBAL| Number of threads for this process                                    1
 GLOBAL| This output is from process                                           0
 GLOBAL| Stack size for threads created by OpenMP (OMP_STACKSIZE)        default
 GLOBAL| CPU model name                           Intel(R) Xeon(R) Platinum 8468
 GLOBAL| CPUID                                                              1003

 MEMORY| system memory details [Kb]
 MEMORY|                        rank 0           min           max       average
 MEMORY| MemTotal            527678176     527678176     527678176     527678176
 MEMORY| MemFree             513825460     513825460     513825460     513825460
 MEMORY| Buffers                 74172         74172         74172         74172
 MEMORY| Cached                1092592       1092592       1092592       1092592
 MEMORY| Slab                  1341412       1341412       1341412       1341412
 MEMORY| SReclaimable           226764        226764        226764        226764
 MEMORY| MemLikelyFree       515218988     515218988     515218988     515218988


 GENERATE|  Preliminary Number of Bonds generated:                             0
 GENERATE|  Achieved consistency in connectivity generation.

 *******************************************************************************
 *******************************************************************************
 **                                                                           **
 **     #####                         ##              ##                      **
 **    ##   ##            ##          ##              ##                      **
 **   ##     ##                       ##            ######                    **
 **   ##     ##  ##   ##  ##   #####  ##  ##   ####   ##    #####    #####    **
 **   ##     ##  ##   ##  ##  ##      ## ##   ##      ##   ##   ##  ##   ##   **
 **   ##  ## ##  ##   ##  ##  ##      ####     ###    ##   ######   ######    **
 **    ##  ###   ##   ##  ##  ##      ## ##      ##   ##   ##       ##        **
 **     #######   #####   ##   #####  ##  ##  ####    ##    #####   ##        **
 **           ##                                                    ##        **
 **                                                                           **
 **                                                ... make the atoms dance   **
 **                                                                           **
 **            Copyright (C) by CP2K developers group (2000-2024)             **
 **                      J. Chem. Phys. 152, 194103 (2020)                    **
 **                                                                           **
 *******************************************************************************


 TOTAL NUMBERS AND MAXIMUM NUMBERS

  Total number of            - Atomic kinds:                                   2
                             - Atoms:                                          4
                             - Shell sets:                                     4
                             - Shells:                                        23
                             - Primitive Cartesian functions:                 23
                             - Cartesian basis functions:                     59
                             - Spherical basis functions:                     55

  Maximum angular momentum of- Orbital basis functions:                        2
                             - Local part of the GTH pseudopotential:          2
                             - Non-local part of the GTH pseudopotential:      4


 SCF PARAMETERS         Density guess:                                   RESTART
                        --------------------------------------------------------
                        max_scf:                                             150
                        max_scf_history:                                       0
                        max_diis:                                              4
                        --------------------------------------------------------
                        eps_scf:                                        1.00E-04
                        eps_scf_history:                                0.00E+00
                        eps_diis:                                       1.00E-01
                        eps_eigval:                                     1.00E-05
                        --------------------------------------------------------
                        level_shift [a.u.]:                             0.000000
                        --------------------------------------------------------
                        Mixing method:                            BROYDEN_MIXING
                                                charge density mixing in g-space
                        --------------------------------------------------------
                        No outer SCF

 CELL_OPT| Pressure tolerance [bar]:                                         1.0
 CELL_OPT| Keep angles between the cell vectors:                              NO
 CELL_OPT| Keep cell symmetry:                                                NO
 CELL_OPT| Constraint:                                                      NONE

 BFGS| Use rational function optimization for step estimation:                NO
 BFGS| Use model Hessian for initial guess:                                   NO
 BFGS| Restart Hessian:                                                       NO
 BFGS| Trust radius:                                                       0.472

 *******************************************************************************
 ***                     STARTING   CELL   OPTIMIZATION                      ***
 ***                                   BFGS                                  ***
 *******************************************************************************

 CELL| Volume [angstrom^3]:                                           204.400073
 CELL| Vector a [angstrom]:       0.000     4.675     4.675   |a| =     6.611987
 CELL| Vector b [angstrom]:       4.675     0.000     4.675   |b| =     6.611987
 CELL| Vector c [angstrom]:       4.675     4.675     0.000   |c| =     6.611987
 CELL| Angle (b,c), alpha [degree]:                                    60.000000
 CELL| Angle (a,c), beta  [degree]:                                    60.000000
 CELL| Angle (a,b), gamma [degree]:                                    60.000000
 CELL| Numerically orthorhombic:                                              NO
 CELL| Periodicity                                                           XYZ

 Number of electrons:                                                         32
 Number of occupied orbitals:                                                 16
 Number of molecular orbitals:                                                16

 Number of orbital functions:                                                 55
 Number of independent orbital functions:                                     55

 Extrapolation method: initial_guess

 *** WARNING in qs_initial_guess.F:306 :: User requested to restart the    ***
 *** wavefunction from the file named: aiida-RESTART.kp. This file does    ***
 *** not exist. Please check the existence of the file or change properly  ***
 *** the value of the keyword WFN_RESTART_FILE_NAME. Calculation continues ***
 *** using ATOMIC GUESS.                                                   ***



 SCF WAVEFUNCTION OPTIMIZATION

  Step     Update method      Time    Convergence         Total energy    Change
  ------------------------------------------------------------------------------
     1 NoMix/Diag. 0.30E+00    0.7     0.67185753       -66.3586357464 -6.64E+01
     2 Broy./Diag. 0.30E+00    0.8     0.17763520       -66.1732895784  1.85E-01
     3 Broy./Diag. 0.30E+00    0.8     0.29732513       -66.1120523534  6.12E-02
     4 Broy./Diag. 0.30E+00    0.8     0.10124020       -66.0396038444  7.24E-02
     5 Broy./Diag. 0.30E+00    0.8     0.07168579       -65.9773906376  6.22E-02
     6 Broy./Diag. 0.30E+00    0.8     0.00855401       -65.9801532257 -2.76E-03
     7 Broy./Diag. 0.30E+00    0.8     0.00552019       -65.9867857857 -6.63E-03
     8 Broy./Diag. 0.30E+00    0.8     0.00031922       -65.9877855811 -1.00E-03
     9 Broy./Diag. 0.30E+00    0.8     0.00025237       -65.9872380915  5.47E-04
    10 Broy./Diag. 0.30E+00    0.8     0.00000695       -65.9870595524  1.79E-04

  *** SCF run converged in    10 steps ***


  Electronic density on regular grids:        -31.9999999948        0.0000000052
  Core density on regular grids:               31.9999994881       -0.0000005119
  Total charge density on r-space grids:       -0.0000005066
  Total charge density g-space grids:          -0.0000005066

  Overlap energy of the core charge distribution:               0.00000000000000
  Self energy of the core charge distribution:               -138.89582544120611
  Core Hamiltonian energy:                                     27.22305691138326
  Hartree energy:                                              56.70226419104117
  Exchange-correlation energy:                                -11.01655521362096

  Total energy:                                               -65.98705955240266

 ENERGY| Total FORCE_EVAL ( QS ) energy [a.u.]:              -65.987059858820743

 --------  Informations at step =     0 ------------
  Optimization Method        =                 BFGS
  Total Energy               =       -65.9870598588
  Internal Pressure [bar]    =      1415.7498551546
  Used time                  =                9.974
 ---------------------------------------------------

 --------------------------
 OPTIMIZATION STEP:      1
 --------------------------

 CELL| Volume [angstrom^3]:                                           204.424096
 CELL| Vector a [angstrom]:      -0.000     4.675     4.675   |a| =     6.611987
 CELL| Vector b [angstrom]:       4.676    -0.000     4.675   |b| =     6.612118
 CELL| Vector c [angstrom]:       4.676     4.676    -0.000   |c| =     6.612249
 CELL| Angle (b,c), alpha [degree]:                                    60.001916
 CELL| Angle (a,c), beta  [degree]:                                    60.002570
 CELL| Angle (a,b), gamma [degree]:                                    60.003223
 CELL| Numerically orthorhombic:                                              NO
 CELL| Periodicity                                                           XYZ

 Number of electrons:                                                         32
 Number of occupied orbitals:                                                 16
 Number of molecular orbitals:                                                16

 Number of orbital functions:                                                 55
 Number of independent orbital functions:                                     55

 Extrapolation method: initial_guess


 SCF WAVEFUNCTION OPTIMIZATION

  Step     Update method      Time    Convergence         Total energy    Change
  ------------------------------------------------------------------------------
     1 Broy./Diag. 0.30E+00    0.6     1.19510894       -66.3629752984 -6.64E+01
     2 Broy./Diag. 0.30E+00    0.8     0.80092154       -66.7888361904 -4.26E-01
     3 Broy./Diag. 0.30E+00    0.8     0.37176744       -66.3761938641  4.13E-01
     4 Broy./Diag. 0.30E+00    0.8     0.05791031       -65.9971245093  3.79E-01
     5 Broy./Diag. 0.30E+00    0.8     0.03800975       -65.9315645350  6.56E-02
     6 Broy./Diag. 0.30E+00    0.8     0.00894074       -65.9706780512 -3.91E-02
     7 Broy./Diag. 0.30E+00    0.8     0.00185009       -65.9860843590 -1.54E-02
     8 Broy./Diag. 0.30E+00    0.8     0.00065173       -65.9875777648 -1.49E-03
     9 Broy./Diag. 0.30E+00    0.8     0.00006519       -65.9873352250  2.43E-04

  *** SCF run converged in     9 steps ***


  Electronic density on regular grids:        -31.9999896605        0.0000103395
  Core density on regular grids:               31.9999994889       -0.0000005111
  Total charge density on r-space grids:        0.0000098284
  Total charge density g-space grids:           0.0000098284

  Overlap energy of the core charge distribution:               0.00000000000000
  Self energy of the core charge distribution:               -138.89582544120611
  Core Hamiltonian energy:                                     27.22281210464398
  Hartree energy:                                              56.70217867645157
  Exchange-correlation energy:                                -11.01650056485735

  Total energy:                                               -65.98733522496792

 ENERGY| Total FORCE_EVAL ( QS ) energy [a.u.]:              -65.987060630629358

 --------  Informations at step =     1 ------------
  Optimization Method        =                 BFGS
  Total Energy               =       -65.9870606306
  Internal Pressure [bar]    =      1404.4004351669
  Real energy change         =        -0.0000007718
  Predicted change in energy =        -0.0000003608
  Scaling factor             =         0.0000000000
  Step size                  =         0.0003490981
  Trust radius               =         0.4724315332
  Decrease in energy         =                  YES
  Used time                  =                9.082

  Convergence check :
  Max. step size             =         0.0003490981
  Conv. limit for step size  =         0.0000100000
  Convergence in step size   =                   NO
  RMS step size              =         0.0002002184
  Conv. limit for RMS step   =         0.0000100000
  Convergence in RMS step    =                   NO
  Max. gradient              =         0.0003464610
  Conv. limit for gradients  =         0.0000100000
  Conv. for gradients        =                   NO
  RMS gradient               =         0.0001977615
  Conv. limit for RMS grad.  =         0.0000500000
  Conv. for gradients        =                   NO
  Pressure Deviation [bar]   =      1304.4004351669
  Pressure Tolerance [bar]   =         1.0000000000
  Conv. for  PRESSURE        =                   NO
 ---------------------------------------------------
 Estimated peak process memory after this step [MiB]                         369

 --------------------------
 OPTIMIZATION STEP:      2
 --------------------------

 CELL| Volume [angstrom^3]:                                           206.362693
 CELL| Vector a [angstrom]:      -0.015     4.675     4.675   |a| =     6.612004
 CELL| Vector b [angstrom]:       4.691    -0.015     4.675   |b| =     6.622714
 CELL| Vector c [angstrom]:       4.690     4.690    -0.015   |c| =     6.633326
 CELL| Angle (b,c), alpha [degree]:                                    60.154733
 CELL| Angle (a,c), beta  [degree]:                                    60.208669
 CELL| Angle (a,b), gamma [degree]:                                    60.262421
 CELL| Numerically orthorhombic:                                              NO
 CELL| Periodicity                                                           XYZ

 Number of electrons:                                                         32
 Number of occupied orbitals:                                                 16
 Number of molecular orbitals:                                                16

 Number of orbital functions:                                                 55
 Number of independent orbital functions:                                     55

 Extrapolation method: initial_guess


 SCF WAVEFUNCTION OPTIMIZATION

  Step     Update method      Time    Convergence         Total energy    Change
  ------------------------------------------------------------------------------
     1 Broy./Diag. 0.30E+00    0.6     1.68798479       -66.3705509230 -6.64E+01
     2 Broy./Diag. 0.30E+00    0.8     1.17030487       -66.8201709798 -4.50E-01
     3 Broy./Diag. 0.30E+00    0.8     0.48625642       -66.4233521525  3.97E-01
     4 Broy./Diag. 0.30E+00    0.8     0.08237344       -66.0051765015  4.18E-01
     5 Broy./Diag. 0.30E+00    0.8     0.04822749       -65.9233999795  8.18E-02
     6 Broy./Diag. 0.30E+00    0.8     0.00972222       -65.9651395249 -4.17E-02
     7 Broy./Diag. 0.30E+00    0.8     0.00317108       -65.9847421995 -1.96E-02
     8 Broy./Diag. 0.30E+00    0.8     0.00072920       -65.9877322301 -2.99E-03
     9 Broy./Diag. 0.30E+00    0.8     0.00009724       -65.9876007540  1.31E-04

  *** SCF run converged in     9 steps ***


  Electronic density on regular grids:        -31.9999879015        0.0000120985
  Core density on regular grids:               31.9999994869       -0.0000005131
  Total charge density on r-space grids:        0.0000115853
  Total charge density g-space grids:           0.0000115853

  Overlap energy of the core charge distribution:               0.00000000000000
  Self energy of the core charge distribution:               -138.89582544120611
  Core Hamiltonian energy:                                     27.21213401798199
  Hartree energy:                                              56.70758231817688
  Exchange-correlation energy:                                -11.01149164900128

  Total energy:                                               -65.98760075404854

 ENERGY| Total FORCE_EVAL ( QS ) energy [a.u.]:              -65.987094548725850

 --------  Informations at step =     2 ------------
  Optimization Method        =                 BFGS
  Total Energy               =       -65.9870945487
  Internal Pressure [bar]    =       510.8419098985
  Real energy change         =        -0.0000339181
  Predicted change in energy =        -0.0000286999
  Scaling factor             =         0.0000000000
  Step size                  =         0.0282491905
  Trust radius               =         0.4724315332
  Decrease in energy         =                  YES
  Used time                  =                8.865

  Convergence check :
  Max. step size             =         0.0282491905
  Conv. limit for step size  =         0.0000100000
  Convergence in step size   =                   NO
  RMS step size              =         0.0161248500
  Conv. limit for RMS step   =         0.0000100000
  Convergence in RMS step    =                   NO
  Max. gradient              =         0.0001406150
  Conv. limit for gradients  =         0.0000100000
  Conv. for gradients        =                   NO
  RMS gradient               =         0.0000575365
  Conv. limit for RMS grad.  =         0.0000500000
  Conv. for gradients        =                   NO
  Pressure Deviation [bar]   =       410.8419098985
  Pressure Tolerance [bar]   =         1.0000000000
  Conv. for  PRESSURE        =                   NO
 ---------------------------------------------------
 Estimated peak process memory after this step [MiB]                         375

 --------------------------
 OPTIMIZATION STEP:      3
 --------------------------

 CELL| Volume [angstrom^3]:                                           206.452638
 CELL| Vector a [angstrom]:      -0.015     4.675     4.675   |a| =     6.612005
 CELL| Vector b [angstrom]:       4.691    -0.015     4.675   |b| =     6.623256
 CELL| Vector c [angstrom]:       4.691     4.691    -0.015   |c| =     6.634327
 CELL| Angle (b,c), alpha [degree]:                                    60.160846
 CELL| Angle (a,c), beta  [degree]:                                    60.217751
 CELL| Angle (a,b), gamma [degree]:                                    60.274279
 CELL| Numerically orthorhombic:                                              NO
 CELL| Periodicity                                                           XYZ

 Number of electrons:                                                         32
 Number of occupied orbitals:                                                 16
 Number of molecular orbitals:                                                16

 Number of orbital functions:                                                 55
 Number of independent orbital functions:                                     55

 Extrapolation method: initial_guess


 SCF WAVEFUNCTION OPTIMIZATION

  Step     Update method      Time    Convergence         Total energy    Change
  ------------------------------------------------------------------------------
     1 Broy./Diag. 0.30E+00    0.6     0.00054451       -65.9870558010 -6.60E+01
     2 Broy./Diag. 0.30E+00    0.8     0.00027071       -65.9875253614 -4.70E-04
     3 Broy./Diag. 0.30E+00    0.8     0.00021455       -65.9872733387  2.52E-04
     4 Broy./Diag. 0.30E+00    0.8     0.00004313       -65.9871030631  1.70E-04

  *** SCF run converged in     4 steps ***


  Electronic density on regular grids:        -32.0000162353       -0.0000162353
  Core density on regular grids:               31.9999994866       -0.0000005134
  Total charge density on r-space grids:       -0.0000167487
  Total charge density g-space grids:          -0.0000167487

  Overlap energy of the core charge distribution:               0.00000000000000
  Self energy of the core charge distribution:               -138.89582544120611
  Core Hamiltonian energy:                                     27.21180977053353
  Hartree energy:                                              56.70815619404797
  Exchange-correlation energy:                                -11.01124358644758

  Total energy:                                               -65.98710306307218

 ENERGY| Total FORCE_EVAL ( QS ) energy [a.u.]:              -65.987094867343728

 --------  Informations at step =     3 ------------
  Optimization Method        =                 BFGS
  Total Energy               =       -65.9870948673
  Internal Pressure [bar]    =       470.9025753055
  Real energy change         =        -0.0000003186
  Predicted change in energy =        -0.0000000883
  Scaling factor             =         0.0000000000
  Step size                  =         0.0014435214
  Trust radius               =         0.4724315332
  Decrease in energy         =                  YES
  Used time                  =                4.954

  Convergence check :
  Max. step size             =         0.0014435214
  Conv. limit for step size  =         0.0000100000
  Convergence in step size   =                   NO
  RMS step size              =         0.0007514712
  Conv. limit for RMS step   =         0.0000100000
  Convergence in RMS step    =                   NO
  Max. gradient              =         0.0001309094
  Conv. limit for gradients  =         0.0000100000
  Conv. for gradients        =                   NO
  RMS gradient               =         0.0000589139
  Conv. limit for RMS grad.  =         0.0000500000
  Conv. for gradients        =                   NO
  Pressure Deviation [bar]   =       370.9025753055
  Pressure Tolerance [bar]   =         1.0000000000
  Conv. for  PRESSURE        =                   NO
 ---------------------------------------------------
 Estimated peak process memory after this step [MiB]                         376

 *** MAXIMUM NUMBER OF OPTIMIZATION STEPS REACHED ***
 ***        EXITING GEOMETRY OPTIMIZATION         ***

 -------------------------------------------------------------------------------
 -                                                                             -
 -                                DBCSR STATISTICS                             -
 -                                                                             -
 -------------------------------------------------------------------------------
 COUNTER                                    TOTAL       BLAS       SMM       ACC
 flops inhomo. stacks                           0       0.0%      0.0%      0.0%
 flops total                         0.000000E+00       0.0%      0.0%      0.0%
 flops max/rank                      0.000000E+00       0.0%      0.0%      0.0%
 matmuls inhomo. stacks                         0       0.0%      0.0%      0.0%
 matmuls total                                  0       0.0%      0.0%      0.0%
 number of processed stacks                     0       0.0%      0.0%      0.0%
 average stack size                                     0.0       0.0       0.0
 marketing flops                     0.000000E+00
 -------------------------------------------------------------------------------
 -                                                                             -
 -                      DBCSR MESSAGE PASSING PERFORMANCE                      -
 -                                                                             -
 -------------------------------------------------------------------------------
 ROUTINE             CALLS      AVE VOLUME [Bytes]
 MP_Bcast                1                     12.
 MP_Allreduce        17222                      8.
 MP_Alltoall        101767                  27728.
 -------------------------------------------------------------------------------

 -------------------------------------------------------------------------------
 -                                                                             -
 -                                DBM STATISTICS                               -
 -                                                                             -
 -------------------------------------------------------------------------------
    M  x    N  x    K                                          COUNT     PERCENT
 -------------------------------------------------------------------------------

 -------------------------------------------------------------------------------
 -                                                                             -
 -                                GRID STATISTICS                              -
 -                                                                             -
 -------------------------------------------------------------------------------
 LP    KERNEL             BACKEND                              COUNT     PERCENT
 4     collocate general  CPU                                 186134      50.00%
 4     integrate general  CPU                                 165492      44.45%
 7     integrate general  CPU                                  20642       5.54%
 0     collocate general  CPU                                     16       0.00%
 3     integrate general  CPU                                     16       0.00%
 -------------------------------------------------------------------------------

 MEMORY| Estimated peak process memory [MiB]                                 376

 -------------------------------------------------------------------------------
 -                                                                             -
 -                         MESSAGE PASSING PERFORMANCE                         -
 -                                                                             -
 -------------------------------------------------------------------------------

 ROUTINE             CALLS      AVE VOLUME [Bytes]
 MP_Group               17
 MP_Bcast            47890                  12091.
 MP_Allreduce         8866                     88.
 MP_Sync               451
 MP_Alltoall          1084              899203316.
 MP_SendRecv         14060                   6520.
 MP_ISendRecv        14060                   6520.
 MP_Wait             40292
 MP_comm_split           5
 MP_ISend            29680                    219.
 MP_IRecv            48408                    132.
 -------------------------------------------------------------------------------


 -------------------------------------------------------------------------------
 -                                                                             -
 -                           R E F E R E N C E S                               -
 -                                                                             -
 -------------------------------------------------------------------------------
 
 CP2K version 2024.1, the CP2K developers group (2024).
 CP2K is freely available from https://www.cp2k.org/ .

 Kuehne,Thomas D.; Iannuzzi,Marcella; Del Ben,Mauro;
 Rybkin,Vladimir V.; Seewald,Patrick; Stein,Frederick; Laino,Teodoro;
 Khaliullin,Rustam Z.; Schuett,Ole; Schiffmann,Florian; Golze,Dorothea;
 Wilhelm,Jan; Chulkov,Sergey; Bani-Hashemian,Mohammad Hossein;
 Weber,Valery; Borstnik,Urban; Taillefumier,Mathieu;
 Jakobovits,Alice Shoshana; Lazzaro,Alfio; Pabst,Hans; Mueller,Tiziano;
 Schade,Robert; Guidon,Manuel; Andermatt,Samuel; Holmberg,Nico;
 Schenter,Gregory K.; Hehn,Anna; Bussy,Augustin; Belleflamme,Fabian;
 Tabacchi,Gloria; Gloess,Andreas; Lass,Michael; Bethune,Iain;
 Mundy,Christopher J.; Plessl,Christian; Watkins,Matt;
 VandeVondele,Joost; Krack,Matthias; Hutter,Juerg. 
 The Journal of Chemical Physics, 152 (19), (2020). 
 CP2K: An electronic structure and molecular dynamics software package -
 Quickstep: Efficient and accurate electronic structure calculations.
 https://doi.org/10.1063/5.0007045

 Togo, Atsushi; Tanaka, Isao. arXiv, 1808.01590 (2018). 
 Spglib : a software library for crystal symmetry search.
 https://doi.org/xxx

 Schuett, Ole; Messmer, Peter; Hutter, Juerg; VandeVondele, Joost. 
 Electronic Structure Calculations on Graphics Processing Units, John
 Wiley & Sons, Ltd, 173-190 (2016). 
 GPU-Accelerated Sparse Matrix-Matrix Multiplication for
 Linear Scaling Density Functional Theory.
 https://doi.org/10.1002/9781118670712.ch8

 Heinecke, A; Henry, G; Hutchinson, M; Pabst, H. 
 Proceedings of Intl. Supercomputing Conference, 981-991 (2016). 
 LIBXSMM: Accelerating Small Matrix Multiplications
 by Runtime Code Generation.
 https://doi.org/10.1109/SC.2016.83

 Borstnik, U; VandeVondele, J; Weber, V; Hutter, J. 
 PARALLEL COMPUTING, 40 (5-6), 47-58 (2014). 
 Sparse matrix multiplication: The distributed block-compressed sparse
 row library.
 https://doi.org/10.1016/j.parco.2014.03.012

 Hutter, J; Iannuzzi, M; Schiffmann, F; VandeVondele, J. 
 WIREs Comput Mol Sci., 4 (1), 15-25 (2014). 
 CP2K: atomistic simulations of condensed matter systems.
 https://doi.org/10.1002/wcms.1159

 Marek, A; Blum, V; Johanni, R; Havu, V; Lang, B; Auckenthaler, T;
 Heinecke, A; Bungartz, H; Lederer, H. 
 Journal of Physics: Condensed Matter, 26 (21), (2014). 
 The ELPA library: scalable parallel eigenvalue solutions for
 electronic structure
 theory and computational science.
 https://doi.org/10.1088/0953-8984/26/21/213201

 VandeVondele, J; Hutter, J. 
 JOURNAL OF CHEMICAL PHYSICS, 127 (11), 114105 (2007). 
 Gaussian basis sets for accurate calculations on molecular systems in
 gas and condensed phases.
 https://doi.org/10.1063/1.2770708

 Krack, M. 
 THEORETICAL CHEMISTRY ACCOUNTS, 114 (1-3), 145-152 (2005). 
 Pseudopotentials for H to Kr optimized for gradient-corrected
 exchange-correlation functionals.
 https://doi.org/10.1007/s00214-005-0655-y

 VandeVondele, J; Krack, M; Mohamed, F; Parrinello, M; Chassaing, T;
 Hutter, J. COMPUTER PHYSICS COMMUNICATIONS, 167 (2), 103-128 (2005). 
 QUICKSTEP: Fast and accurate density functional calculations using a
 mixed Gaussian and plane waves approach.
 https://doi.org/10.1016/j.cpc.2004.12.014

 Frigo, M; Johnson, SG. 
 PROCEEDINGS OF THE IEEE, 93 (2), 216-231 (2005). 
 The design and implementation of FFTW3.
 https://doi.org/10.1109/JPROC.2004.840301

 Hartwigsen, C; Goedecker, S; Hutter, J. 
 PHYSICAL REVIEW B, 58 (7), 3641-3662 (1998). 
 Relativistic separable dual-space Gaussian pseudopotentials from H to Rn.
 https://doi.org/10.1103/PhysRevB.58.3641

 Lippert, G; Hutter, J; Parrinello, M. 
 MOLECULAR PHYSICS, 92 (3), 477-487 (1997). 
 A hybrid Gaussian and plane wave density functional scheme.
 https://doi.org/10.1080/002689797170220

 Perdew, JP; Burke, K; Ernzerhof, M. 
 PHYSICAL REVIEW LETTERS, 77 (18), 3865-3868 (1996). 
 Generalized gradient approximation made simple.
 https://doi.org/10.1103/PhysRevLett.77.3865

 Goedecker, S; Teter, M; Hutter, J. 
 PHYSICAL REVIEW B, 54 (3), 1703-1710 (1996). 
 Separable dual-space Gaussian pseudopotentials.
 https://doi.org/10.1103/PhysRevB.54.1703


 -------------------------------------------------------------------------------
 -                                                                             -
 -                                T I M I N G                                  -
 -                                                                             -
 -------------------------------------------------------------------------------
 SUBROUTINE                       CALLS  ASD         SELF TIME        TOTAL TIME
                                MAXIMUM       AVERAGE  MAXIMUM  AVERAGE  MAXIMUM
 CP2K                                 1  1.0    0.041    0.051   33.192   33.193
 cp_cell_opt                          1  2.0    0.006    0.006   32.896   32.897
 geoopt_bfgs                          1  3.0    0.005    0.006   32.890   32.892
 cp_eval_at                           4  4.0    0.004    0.005   32.782   32.782
 qs_forces                            4  5.0    0.003    0.003   32.776   32.776
 qs_energies                          4  6.0    0.010    0.011   29.027   29.028
 scf_env_do_scf                       4  7.0    0.000    0.000   26.856   26.859
 scf_env_do_scf_inner_loop           32  8.0    0.008    0.008   26.856   26.858
 qs_scf_new_mos_kp                   32  9.0    0.002    0.003   16.994   17.239
 do_general_diag_kp                  32 10.0    0.017    0.017   16.992   17.237
 dbcsr_desymmetrize_deep           9145 11.4    0.084    0.100   12.642   12.953
 rebuild_ks_matrix                   36  9.7    0.000    0.000    0.729   11.518
 qs_ks_build_kohn_sham_matrix        36 10.7    0.016    0.018    0.728   11.518
 sum_up_and_integrate                36 11.7    0.000    0.000    0.551   11.336
 integrate_v_rspace                  36 12.7    0.001    0.011    0.550   11.336
 grid_integrate_task_list            36 13.7    0.324   11.106    0.324   11.106
 mp_alltoall_i22                  17151 12.7    9.766   10.094    9.766   10.094
 qs_ks_update_qs_env                 32  9.0    0.000    0.000    0.800    8.995
 transfer_rs2pw                     148 11.9    0.001    0.001    8.463    8.728
 mp_sendrecv_dv                   14060 13.9    8.417    8.682    8.417    8.682
 transfer_rs2pw_100                  40 12.8    0.031    0.034    8.400    8.666
 qs_rho_update_rho_low               36  9.0    0.000    0.000    8.529    8.530
 calculate_rho_elec                  36 10.0    0.001    0.017    8.529    8.529
 density_rs2pw                       36 11.0    0.001    0.001    8.236    8.481
 grid_collocate_task_list            36 11.0    0.288    8.266    0.288    8.266
 copy_dbcsr_to_fm                  5049 10.8    0.026    0.029    5.129    5.140
 dbcsr_complete_redistribute       8006 12.1    0.144    0.214    4.481    4.498
 mp_alltoall_d11v                 51453 13.3    3.062    3.074    3.062    3.074
 mp_alltoall_i11v                 33163 12.9    3.029    3.031    3.029    3.031
 qs_ks_update_qs_env_forces           4  6.0    0.000    0.000    0.162    2.755
 mp_sum_dm                          239  6.5    2.655    2.735    2.655    2.735
 kpoint_density_transform            36 10.7    0.008    0.008    1.871    1.881
 copy_fm_to_dbcsr                  2957 11.5    0.005    0.005    1.642    1.653
 hybrid_alltoall_any               9145 12.4    0.026    0.027    1.627    1.633
 init_scf_run                         4  7.0    0.000    0.000    1.411    1.413
 scf_env_initial_rho_setup            4  8.0    0.000    0.000    1.411    1.413
 write_kpoints_restart               32  9.0    0.002    0.031    1.288    1.291
 mp_sum_d                         17908 12.4    1.117    1.183    1.117    1.183
 cp_fm_start_copy_general          6400 11.2    0.038    0.067    0.992    1.019
 build_core_hamiltonian_matrix_       4  6.0    0.002    0.003    0.100    0.970
 calculate_ecore_overlap              8  7.0    0.000    0.000    0.893    0.957
 rskp_transform                    2048 11.0    0.020    0.718    0.020    0.718
 mp_allgather_i                   12800 12.2    0.585    0.686    0.585    0.686
 -------------------------------------------------------------------------------

 The number of warnings for this run is : 1
 
 -------------------------------------------------------------------------------
  **** **** ******  **  PROGRAM ENDED AT                 2024-07-05 08:13:10.941
 ***** ** ***  *** **   PROGRAM RAN ON                                     c0268
 **    ****   ******    PROGRAM RAN BY                                  nichdsas
 ***** **    ** ** **   PROGRAM PROCESS ID                                594420
  **** **  *******  **  PROGRAM STOPPED IN /scratch-grete/usr/nichdsas/test_pars
                                           er/cp2k-2024.1/cell_opt_max_steps_low
