 DBCSR| CPU Multiplication driver                                           XSMM
 DBCSR| Multrec recursion limit                                              512
 DBCSR| Multiplication stack size                                           1000
 DBCSR| Maximum elements for images                                    UNLIMITED
 DBCSR| Multiplicative factor virtual images                                   1
 DBCSR| Use multiplication densification                                       T
 DBCSR| Multiplication size stacks                                             3
 DBCSR| Use memory pool for CPU allocation                                     F
 DBCSR| Number of 3D layers                                               SINGLE
 DBCSR| Use MPI memory allocation                                              F
 DBCSR| Use RMA algorithm                                                      F
 DBCSR| Use Communication thread                                               T
 DBCSR| Communication thread load                                             83
 DBCSR| MPI: My node id                                                        0
 DBCSR| MPI: Number of nodes                                                  12
 DBCSR| OMP: Current number of threads                                         2
 DBCSR| OMP: Max number of threads                                             2
 DBCSR| Split modifier for TAS multiplication algorithm                  1.0E+00


  **** **** ******  **  PROGRAM STARTED AT               2021-06-03 18:36:46.405
 ***** ** ***  *** **   PROGRAM STARTED ON                               mpcl100
 **    ****   ******    PROGRAM STARTED BY                              pubo1141
 ***** **    ** ** **   PROGRAM PROCESS ID                                  6396
  **** **  *******  **  PROGRAM STARTED IN /user/pubo1141/simulations/aiida_test
                                           s/cp2k_8.1/eigenvalues_changing_chara
                                           cter_low

 CP2K| version string:                                          CP2K version 8.1
 CP2K| source code revision number:                                  git:0b61f2f
 CP2K| cp2kflags: omp libint fftw3 libxc parallel mpi3 scalapack xsmm spglib mkl
 CP2K|             libvori libbqb
 CP2K| is freely available from                            https://www.cp2k.org/
 CP2K| Program compiled at                         Thu May 27 13:34:22 CEST 2021
 CP2K| Program compiled on                                               hpcl001
 CP2K| Program compiled for                                        carl-mkl-ompi
 CP2K| Data directory path            /user/pubo1141/software/cp2k/cp2k-8.1/data
 CP2K| Input file name                                                 aiida.inp

 GLOBAL| Force Environment number                                              1
 GLOBAL| Basis set file name                                    BASIS_MOLOPT_UCL
 GLOBAL| Potential file name                                      GTH_POTENTIALS
 GLOBAL| MM Potential file name                                     MM_POTENTIAL
 GLOBAL| Coordinate file name                                   aiida.coords.xyz
 GLOBAL| Method name                                                        CP2K
 GLOBAL| Project name                                                      aiida
 GLOBAL| Preferred FFT library                                             FFTW3
 GLOBAL| Preferred diagonalization lib.                                       SL
 GLOBAL| Run type                                                         ENERGY
 GLOBAL| All-to-all communication in single precision                          F
 GLOBAL| FFTs using library dependent lengths                                  F
 GLOBAL| Global print level                                                  LOW
 GLOBAL| MPI I/O enabled                                                       T
 GLOBAL| Total number of message passing processes                            12
 GLOBAL| Number of threads for this process                                    2
 GLOBAL| This output is from process                                           0
 GLOBAL| CPU model name                Intel(R) Xeon(R) CPU E5-2650 v4 @ 2.20GHz
 GLOBAL| CPUID                                                              1002
 GLOBAL| Compiled for CPUID                                                    0

 *** HINT in environment.F:802 :: The compiler target flags (generic) used ***
 *** to build this binary cannot exploit all extensions of this CPU model  ***
 *** (x86_avx2). Consider compiler target flags as part of FCFLAGS and     ***
 *** CFLAGS (ARCH file).                                                   ***


 MEMORY| system memory details [Kb]
 MEMORY|                        rank 0           min           max       average
 MEMORY| MemTotal            131594208     131594208     131594208     131594208
 MEMORY| MemFree             102395744     102395744     102395744     102395744
 MEMORY| Buffers                159552        159552        159552        159552
 MEMORY| Cached               18003028      18003028      18003028      18003028
 MEMORY| Slab                  2695492       2695492       2695492       2695492
 MEMORY| SReclaimable          1498296       1498296       1498296       1498296
 MEMORY| MemLikelyFree       122056620     122056620     122056620     122056620


 GENERATE|  Preliminary Number of Bonds generated:                             0
 GENERATE|  Achieved consistency in connectivity generation.

 *** WARNING in cryssym.F:169 :: Version of Symmetry Library SPGLIB not ***
 *** tested                                                             ***


 *******************************************************************************
 *******************************************************************************
 **                                                                           **
 **     #####                         ##              ##                      **
 **    ##   ##            ##          ##              ##                      **
 **   ##     ##                       ##            ######                    **
 **   ##     ##  ##   ##  ##   #####  ##  ##   ####   ##    #####    #####    **
 **   ##     ##  ##   ##  ##  ##      ## ##   ##      ##   ##   ##  ##   ##   **
 **   ##  ## ##  ##   ##  ##  ##      ####     ###    ##   ######   ######    **
 **    ##  ###   ##   ##  ##  ##      ## ##      ##   ##   ##       ##        **
 **     #######   #####   ##   #####  ##  ##  ####    ##    #####   ##        **
 **           ##                                                    ##        **
 **                                                                           **
 **                                                ... make the atoms dance   **
 **                                                                           **
 **            Copyright (C) by CP2K developers group (2000 - 2020)           **
 **                      J. Chem. Phys. 152, 194103 (2020)                    **
 **                                                                           **
 *******************************************************************************


 TOTAL NUMBERS AND MAXIMUM NUMBERS

  Total number of            - Atomic kinds:                                   1
                             - Atoms:                                         28
                             - Shell sets:                                    28
                             - Shells:                                       168
                             - Primitive Cartesian functions:                168
                             - Cartesian basis functions:                    420
                             - Spherical basis functions:                    392

  Maximum angular momentum of- Orbital basis functions:                        2
                             - Local part of the GTH pseudopotential:          2
                             - Non-local part of the GTH pseudopotential:      3


 SCF PARAMETERS         Density guess:                                   RESTART
                        --------------------------------------------------------
                        max_scf:                                             250
                        max_scf_history:                                       0
                        max_diis:                                              4
                        --------------------------------------------------------
                        eps_scf:                                        1.00E-04
                        eps_scf_history:                                0.00E+00
                        eps_diis:                                       1.00E-01
                        eps_eigval:                                     1.00E-05
                        --------------------------------------------------------
                        level_shift [a.u.]:                                 0.00
                        added MOs                                        10    0
                        --------------------------------------------------------
                        Mixing method:                            BROYDEN_MIXING
                                                charge density mixing in g-space
                        --------------------------------------------------------
                        No outer SCF

 KPOINTS| Number of kpoint groups                                              1
 KPOINTS| Size of each kpoint group                                           12
 KPOINTS| Number of kpoints per group                                         88

 Number of electrons:                                                        252
 Number of occupied orbitals:                                                126
 Number of molecular orbitals:                                               136

 Number of orbital functions:                                                392
 Number of independent orbital functions:                                    392

 Extrapolation method: initial_guess

 *** WARNING in qs_initial_guess.F:309 :: User requested to restart the    ***
 *** wavefunction from the file named: aiida-RESTART.kp. This file does    ***
 *** not exist. Please check the existence of the file or change properly  ***
 *** the value of the keyword WFN_RESTART_FILE_NAME. Calculation continues ***
 *** using ATOMIC GUESS.                                                   ***



 SCF WAVEFUNCTION OPTIMIZATION

  Step     Update method      Time    Convergence         Total energy    Change
  ------------------------------------------------------------------------------
     1 NoMix/Diag. 0.10E-01    7.2     0.51575098      -564.3913926346 -5.64E+02
     2 Broy./Diag. 0.10E-01    7.9     0.00017327      -565.3460252445 -9.55E-01
     3 Broy./Diag. 0.10E-01    7.9     0.01939579      -564.0736752170  1.27E+00
     4 Broy./Diag. 0.10E-01    8.8     0.00007984      -563.6319496200  4.42E-01

  *** SCF run converged in     4 steps ***


  Electronic density on regular grids:       -251.9999999819        0.0000000181
  Core density on regular grids:              251.9999967109       -0.0000032891
  Total charge density on r-space grids:       -0.0000032710
  Total charge density g-space grids:          -0.0000032710

  Overlap energy of the core charge distribution:               0.00000000000000
  Self energy of the core charge distribution:              -1184.79812545028835
  Core Hamiltonian energy:                                    228.79378245545308
  Hartree energy:                                             480.30596581303905
  Exchange-correlation energy:                                -87.93357243820157

  Total energy:                                              -563.63194961999784


 MO EIGENVALUES AND MO OCCUPATION NUMBERS FOR K-POINT:     1

# MO index          MO eigenvalue [a.u.]            MO occupation
         1                     -0.821550                 2.000000
         2                     -0.821528                 2.000000
         3                     -0.821324                 2.000000
         4                     -0.821302                 2.000000
         5                     -0.821160                 2.000000
         6                     -0.821132                 2.000000
         7                     -0.820861                 2.000000
         8                     -0.820839                 2.000000
         9                     -0.820818                 2.000000
        10                     -0.820808                 2.000000
        11                     -0.820799                 2.000000
        12                     -0.820792                 2.000000
        13                     -0.820776                 2.000000
        14                     -0.820752                 2.000000
        15                     -0.820734                 2.000000
        16                     -0.820707                 2.000000
        17                     -0.820636                 2.000000
        18                     -0.820632                 2.000000
        19                     -0.820564                 2.000000
        20                     -0.820544                 2.000000
        21                     -0.820516                 2.000000
        22                     -0.820490                 2.000000
        23                     -0.820398                 2.000000
        24                     -0.820392                 2.000000
        25                     -0.820374                 2.000000
        26                     -0.820340                 2.000000
        27                     -0.820321                 2.000000
        28                     -0.820289                 2.000000
        29                     -0.340547                 2.000000
        30                     -0.340409                 2.000000
        31                     -0.339847                 2.000000
        32                     -0.339555                 2.000000
        33                     -0.339490                 2.000000
        34                     -0.339397                 2.000000
        35                     -0.339212                 2.000000
        36                     -0.339180                 2.000000
        37                     -0.339141                 2.000000
        38                     -0.339024                 2.000000
        39                     -0.338999                 2.000000
        40                     -0.338818                 2.000000
        41                     -0.338794                 2.000000
        42                     -0.338699                 2.000000
        43                     -0.338577                 2.000000
        44                     -0.338531                 2.000000
        45                     -0.338385                 2.000000
        46                     -0.338293                 2.000000
        47                     -0.338173                 2.000000
        48                     -0.338118                 2.000000
        49                     -0.338102                 2.000000
        50                     -0.337989                 2.000000
        51                     -0.337948                 2.000000
        52                     -0.337922                 2.000000
        53                     -0.337850                 2.000000
        54                     -0.337649                 2.000000
        55                     -0.337572                 2.000000
        56                     -0.337508                 2.000000
        57                     -0.337456                 2.000000
        58                     -0.337342                 2.000000
        59                     -0.337283                 2.000000
        60                     -0.337222                 2.000000
        61                     -0.337198                 2.000000
        62                     -0.337116                 2.000000
        63                     -0.337082                 2.000000
        64                     -0.336922                 2.000000
        65                     -0.336902                 2.000000
        66                     -0.336832                 2.000000
        67                     -0.336752                 2.000000
        68                     -0.336660                 2.000000
        69                     -0.336649                 2.000000
        70                     -0.336577                 2.000000
        71                     -0.336569                 2.000000
        72                     -0.336533                 2.000000
        73                     -0.336446                 2.000000
        74                     -0.336417                 2.000000
        75                     -0.336353                 2.000000
        76                     -0.336343                 2.000000
        77                     -0.336317                 2.000000
        78                     -0.336295                 2.000000
        79                     -0.336229                 2.000000
        80                     -0.336211                 2.000000
        81                     -0.336152                 2.000000
        82                     -0.336081                 2.000000
        83                     -0.336036                 2.000000
        84                     -0.335999                 2.000000
        85                     -0.335981                 2.000000
        86                     -0.335968                 2.000000
        87                     -0.335950                 2.000000
        88                     -0.335859                 2.000000
        89                     -0.335830                 2.000000
        90                     -0.335772                 2.000000
        91                     -0.335766                 2.000000
        92                     -0.335643                 2.000000
        93                     -0.335613                 2.000000
        94                     -0.335589                 2.000000
        95                     -0.335582                 2.000000
        96                     -0.335541                 2.000000
        97                     -0.335527                 2.000000
        98                     -0.335472                 2.000000
        99                     -0.335462                 2.000000
       100                     -0.335432                 2.000000
       101                     -0.335397                 2.000000
       102                     -0.335359                 2.000000
       103                     -0.335350                 2.000000
       104                     -0.335320                 2.000000
       105                     -0.335237                 2.000000
       106                     -0.335222                 2.000000
       107                     -0.335188                 2.000000
       108                     -0.335160                 2.000000
       109                     -0.335080                 2.000000
       110                     -0.335054                 2.000000
       111                     -0.334948                 2.000000
       112                     -0.334714                 2.000000
       113                      0.012398                 2.000000
       114                      0.014769                 2.000000
       115                      0.018007                 2.000000
       116                      0.027929                 2.000000
       117                      0.029484                 2.000000
       118                      0.034876                 2.000000
       119                      0.036192                 2.000000
       120                      0.037888                 2.000000
       121                      0.042991                 2.000000
       122                      0.049974                 2.000000
       123                      0.053289                 2.000000
       124                      0.056532                 2.000000
       125                      0.061431                 2.000000
       126                      0.065814                 0.000000
       127                      0.067607                 0.000000
       128                      0.069300                 0.000000
       129                      0.072306                 0.000000
       130                      0.073174                 0.000000
       131                      0.073610                 0.000000
       132                      0.076723                 0.000000
       133                      0.079201                 0.000000
       134                      0.080030                 0.000000
       135                      0.080758                 0.000000
       136                      0.081149                 0.000000
# Sum                                                  250.000000

  Fermi energy:                 0.062223



 MO EIGENVALUES AND MO OCCUPATION NUMBERS FOR K-POINT:     2

# MO index          MO eigenvalue [a.u.]            MO occupation
         1                     -0.821550                 2.000000
         2                     -0.821528                 2.000000
         3                     -0.821324                 2.000000
         4                     -0.821302                 2.000000
         5                     -0.821161                 2.000000
         6                     -0.821132                 2.000000
         7                     -0.820859                 2.000000
         8                     -0.820843                 2.000000
         9                     -0.820817                 2.000000
        10                     -0.820811                 2.000000
        11                     -0.820798                 2.000000
        12                     -0.820786                 2.000000
        13                     -0.820777                 2.000000
        14                     -0.820757                 2.000000
        15                     -0.820728                 2.000000
        16                     -0.820699                 2.000000
        17                     -0.820641                 2.000000
        18                     -0.820635                 2.000000
        19                     -0.820564                 2.000000
        20                     -0.820543                 2.000000
        21                     -0.820516                 2.000000
        22                     -0.820490                 2.000000
        23                     -0.820398                 2.000000
        24                     -0.820392                 2.000000
        25                     -0.820374                 2.000000
        26                     -0.820340                 2.000000
        27                     -0.820321                 2.000000
        28                     -0.820289                 2.000000
        29                     -0.340557                 2.000000
        30                     -0.340376                 2.000000
        31                     -0.339794                 2.000000
        32                     -0.339541                 2.000000
        33                     -0.339436                 2.000000
        34                     -0.339326                 2.000000
        35                     -0.339219                 2.000000
        36                     -0.339162                 2.000000
        37                     -0.339066                 2.000000
        38                     -0.339053                 2.000000
        39                     -0.338899                 2.000000
        40                     -0.338886                 2.000000
        41                     -0.338805                 2.000000
        42                     -0.338670                 2.000000
        43                     -0.338628                 2.000000
        44                     -0.338518                 2.000000
        45                     -0.338501                 2.000000
        46                     -0.338427                 2.000000
        47                     -0.338265                 2.000000
        48                     -0.338192                 2.000000
        49                     -0.338107                 2.000000
        50                     -0.338072                 2.000000
        51                     -0.337930                 2.000000
        52                     -0.337913                 2.000000
        53                     -0.337741                 2.000000
        54                     -0.337709                 2.000000
        55                     -0.337550                 2.000000
        56                     -0.337511                 2.000000
        57                     -0.337374                 2.000000
        58                     -0.337339                 2.000000
        59                     -0.337216                 2.000000
        60                     -0.337184                 2.000000
        61                     -0.337138                 2.000000
        62                     -0.337094                 2.000000
        63                     -0.337063                 2.000000
        64                     -0.337033                 2.000000
        65                     -0.336912                 2.000000
        66                     -0.336895                 2.000000
        67                     -0.336776                 2.000000
        68                     -0.336759                 2.000000
        69                     -0.336678                 2.000000
        70                     -0.336576                 2.000000
        71                     -0.336565                 2.000000
        72                     -0.336486                 2.000000
        73                     -0.336478                 2.000000
        74                     -0.336456                 2.000000
        75                     -0.336426                 2.000000
        76                     -0.336360                 2.000000
        77                     -0.336312                 2.000000
        78                     -0.336250                 2.000000
        79                     -0.336214                 2.000000
        80                     -0.336183                 2.000000
        81                     -0.336108                 2.000000
        82                     -0.336077                 2.000000
        83                     -0.336062                 2.000000
        84                     -0.336028                 2.000000
        85                     -0.335968                 2.000000
        86                     -0.335958                 2.000000
        87                     -0.335915                 2.000000
        88                     -0.335885                 2.000000
        89                     -0.335823                 2.000000
        90                     -0.335760                 2.000000
        91                     -0.335742                 2.000000
        92                     -0.335695                 2.000000
        93                     -0.335619                 2.000000
        94                     -0.335607                 2.000000
        95                     -0.335565                 2.000000
        96                     -0.335554                 2.000000
        97                     -0.335523                 2.000000
        98                     -0.335476                 2.000000
        99                     -0.335458                 2.000000
       100                     -0.335449                 2.000000
       101                     -0.335405                 2.000000
       102                     -0.335333                 2.000000
       103                     -0.335304                 2.000000
       104                     -0.335284                 2.000000
       105                     -0.335228                 2.000000
       106                     -0.335196                 2.000000
       107                     -0.335161                 2.000000
       108                     -0.335154                 2.000000
       109                     -0.335066                 2.000000
       110                     -0.335034                 2.000000
       111                     -0.334959                 2.000000
       112                     -0.334712                 2.000000
       113                      0.010448                 2.000000
       114                      0.013696                 2.000000
       115                      0.020159                 2.000000
       116                      0.022089                 2.000000
       117                      0.029462                 2.000000
       118                      0.036549                 2.000000
       119                      0.043034                 2.000000
       120                      0.044594                 2.000000
       121                      0.047479                 2.000000
       122                      0.052474                 2.000000
       123                      0.054625                 2.000000
       124                      0.055922                 2.000000
       125                      0.057831                 2.000000
       126                      0.061679                 2.000000
       127                      0.066138                 0.000000
       128                      0.066664                 0.000000
       129                      0.067695                 0.000000
       130                      0.069426                 0.000000
       131                      0.070746                 0.000000
       132                      0.072191                 0.000000
       133                      0.074939                 0.000000
       134                      0.078272                 0.000000
       135                      0.081248                 0.000000
       136                      0.084517                 0.000000
# Sum                                                  252.000000

  Fermi energy:                 0.062223

  HOMO-LUMO gap:                0.004459 =   0.12 eV



 MO EIGENVALUES AND MO OCCUPATION NUMBERS FOR K-POINT:     3

# MO index          MO eigenvalue [a.u.]            MO occupation
         1                     -0.821550                 2.000000
         2                     -0.821528                 2.000000
         3                     -0.821324                 2.000000
         4                     -0.821302                 2.000000
         5                     -0.821161                 2.000000
         6                     -0.821132                 2.000000
         7                     -0.820857                 2.000000
         8                     -0.820846                 2.000000
         9                     -0.820822                 2.000000
        10                     -0.820813                 2.000000
        11                     -0.820795                 2.000000
        12                     -0.820782                 2.000000
        13                     -0.820778                 2.000000
        14                     -0.820758                 2.000000
        15                     -0.820724                 2.000000
        16                     -0.820687                 2.000000
        17                     -0.820650                 2.000000
        18                     -0.820638                 2.000000
        19                     -0.820566                 2.000000
        20                     -0.820540                 2.000000
        21                     -0.820518                 2.000000
        22                     -0.820490                 2.000000
        23                     -0.820398                 2.000000
        24                     -0.820392                 2.000000
        25                     -0.820374                 2.000000
        26                     -0.820341                 2.000000
        27                     -0.820322                 2.000000
        28                     -0.820289                 2.000000
        29                     -0.340546                 2.000000
        30                     -0.340357                 2.000000
        31                     -0.339719                 2.000000
        32                     -0.339529                 2.000000
        33                     -0.339327                 2.000000
        34                     -0.339273                 2.000000
        35                     -0.339257                 2.000000
        36                     -0.339175                 2.000000
        37                     -0.339092                 2.000000
        38                     -0.338991                 2.000000
        39                     -0.338900                 2.000000
        40                     -0.338769                 2.000000
        41                     -0.338743                 2.000000
        42                     -0.338699                 2.000000
        43                     -0.338653                 2.000000
        44                     -0.338544                 2.000000
        45                     -0.338532                 2.000000
        46                     -0.338476                 2.000000
        47                     -0.338304                 2.000000
        48                     -0.338301                 2.000000
        49                     -0.338173                 2.000000
        50                     -0.338059                 2.000000
        51                     -0.338001                 2.000000
        52                     -0.337872                 2.000000
        53                     -0.337847                 2.000000
        54                     -0.337708                 2.000000
        55                     -0.337636                 2.000000
        56                     -0.337525                 2.000000
        57                     -0.337495                 2.000000
        58                     -0.337385                 2.000000
        59                     -0.337362                 2.000000
        60                     -0.337257                 2.000000
        61                     -0.337133                 2.000000
        62                     -0.337102                 2.000000
        63                     -0.336948                 2.000000
        64                     -0.336877                 2.000000
        65                     -0.336862                 2.000000
        66                     -0.336814                 2.000000
        67                     -0.336771                 2.000000
        68                     -0.336694                 2.000000
        69                     -0.336677                 2.000000
        70                     -0.336582                 2.000000
        71                     -0.336539                 2.000000
        72                     -0.336528                 2.000000
        73                     -0.336469                 2.000000
        74                     -0.336424                 2.000000
        75                     -0.336416                 2.000000
        76                     -0.336394                 2.000000
        77                     -0.336261                 2.000000
        78                     -0.336255                 2.000000
        79                     -0.336182                 2.000000
        80                     -0.336140                 2.000000
        81                     -0.336113                 2.000000
        82                     -0.336089                 2.000000
        83                     -0.336077                 2.000000
        84                     -0.336043                 2.000000
        85                     -0.335938                 2.000000
        86                     -0.335926                 2.000000
        87                     -0.335894                 2.000000
        88                     -0.335876                 2.000000
        89                     -0.335856                 2.000000
        90                     -0.335817                 2.000000
        91                     -0.335804                 2.000000
        92                     -0.335741                 2.000000
        93                     -0.335673                 2.000000
        94                     -0.335638                 2.000000
        95                     -0.335611                 2.000000
        96                     -0.335591                 2.000000
        97                     -0.335565                 2.000000
        98                     -0.335507                 2.000000
        99                     -0.335446                 2.000000
       100                     -0.335441                 2.000000
       101                     -0.335372                 2.000000
       102                     -0.335346                 2.000000
       103                     -0.335296                 2.000000
       104                     -0.335219                 2.000000
       105                     -0.335192                 2.000000
       106                     -0.335167                 2.000000
       107                     -0.335125                 2.000000
       108                     -0.335087                 2.000000
       109                     -0.335069                 2.000000
       110                     -0.334978                 2.000000
       111                     -0.334970                 2.000000
       112                     -0.334703                 2.000000
       113                      0.010456                 2.000000
       114                      0.011254                 2.000000
       115                      0.016169                 2.000000
       116                      0.026052                 2.000000
       117                      0.027242                 2.000000
       118                      0.046003                 2.000000
       119                      0.047469                 2.000000
       120                      0.047569                 2.000000
       121                      0.051137                 2.000000
       122                      0.056105                 2.000000
       123                      0.056524                 2.000000
       124                      0.056789                 2.000000
       125                      0.057796                 2.000000
       126                      0.060036                 2.000000
       127                      0.060381                 2.000000
       128                      0.061611                 2.000000
       129                      0.064028                 0.000000
       130                      0.064347                 0.000000
       131                      0.068527                 0.000000
       132                      0.070328                 0.000000
       133                      0.075155                 0.000000
       134                      0.076752                 0.000000
       135                      0.078024                 0.000000
       136                      0.079574                 0.000000
# Sum                                                  256.000000

  Fermi energy:                 0.062223

  HOMO-LUMO gap:                0.000344 =   0.01 eV



 MO EIGENVALUES AND MO OCCUPATION NUMBERS FOR K-POINT:     4

# MO index          MO eigenvalue [a.u.]            MO occupation
         1                     -0.821550                 2.000000
         2                     -0.821528                 2.000000
         3                     -0.821325                 2.000000
         4                     -0.821303                 2.000000
         5                     -0.821161                 2.000000
         6                     -0.821132                 2.000000
         7                     -0.820856                 2.000000
         8                     -0.820845                 2.000000
         9                     -0.820826                 2.000000
        10                     -0.820814                 2.000000
        11                     -0.820794                 2.000000
        12                     -0.820779                 2.000000
        13                     -0.820778                 2.000000
        14                     -0.820758                 2.000000
        15                     -0.820722                 2.000000
        16                     -0.820679                 2.000000
        17                     -0.820657                 2.000000
        18                     -0.820640                 2.000000
        19                     -0.820567                 2.000000
        20                     -0.820538                 2.000000
        21                     -0.820520                 2.000000
        22                     -0.820488                 2.000000
        23                     -0.820398                 2.000000
        24                     -0.820392                 2.000000
        25                     -0.820375                 2.000000
        26                     -0.820341                 2.000000
        27                     -0.820322                 2.000000
        28                     -0.820289                 2.000000
        29                     -0.340528                 2.000000
        30                     -0.340355                 2.000000
        31                     -0.339702                 2.000000
        32                     -0.339510                 2.000000
        33                     -0.339293                 2.000000
        34                     -0.339282                 2.000000
        35                     -0.339268                 2.000000
        36                     -0.339132                 2.000000
        37                     -0.339104                 2.000000
        38                     -0.338956                 2.000000
        39                     -0.338871                 2.000000
        40                     -0.338781                 2.000000
        41                     -0.338757                 2.000000
        42                     -0.338723                 2.000000
        43                     -0.338653                 2.000000
        44                     -0.338560                 2.000000
        45                     -0.338495                 2.000000
        46                     -0.338403                 2.000000
        47                     -0.338348                 2.000000
        48                     -0.338192                 2.000000
        49                     -0.338182                 2.000000
        50                     -0.338123                 2.000000
        51                     -0.338103                 2.000000
        52                     -0.337985                 2.000000
        53                     -0.337802                 2.000000
        54                     -0.337788                 2.000000
        55                     -0.337651                 2.000000
        56                     -0.337549                 2.000000
        57                     -0.337536                 2.000000
        58                     -0.337454                 2.000000
        59                     -0.337401                 2.000000
        60                     -0.337240                 2.000000
        61                     -0.337181                 2.000000
        62                     -0.337117                 2.000000
        63                     -0.336924                 2.000000
        64                     -0.336900                 2.000000
        65                     -0.336857                 2.000000
        66                     -0.336777                 2.000000
        67                     -0.336744                 2.000000
        68                     -0.336653                 2.000000
        69                     -0.336568                 2.000000
        70                     -0.336540                 2.000000
        71                     -0.336532                 2.000000
        72                     -0.336517                 2.000000
        73                     -0.336478                 2.000000
        74                     -0.336407                 2.000000
        75                     -0.336356                 2.000000
        76                     -0.336324                 2.000000
        77                     -0.336257                 2.000000
        78                     -0.336256                 2.000000
        79                     -0.336216                 2.000000
        80                     -0.336175                 2.000000
        81                     -0.336118                 2.000000
        82                     -0.336081                 2.000000
        83                     -0.336014                 2.000000
        84                     -0.336008                 2.000000
        85                     -0.335997                 2.000000
        86                     -0.335952                 2.000000
        87                     -0.335909                 2.000000
        88                     -0.335861                 2.000000
        89                     -0.335854                 2.000000
        90                     -0.335824                 2.000000
        91                     -0.335809                 2.000000
        92                     -0.335747                 2.000000
        93                     -0.335737                 2.000000
        94                     -0.335659                 2.000000
        95                     -0.335634                 2.000000
        96                     -0.335615                 2.000000
        97                     -0.335599                 2.000000
        98                     -0.335519                 2.000000
        99                     -0.335457                 2.000000
       100                     -0.335434                 2.000000
       101                     -0.335379                 2.000000
       102                     -0.335361                 2.000000
       103                     -0.335283                 2.000000
       104                     -0.335224                 2.000000
       105                     -0.335193                 2.000000
       106                     -0.335175                 2.000000
       107                     -0.335094                 2.000000
       108                     -0.335080                 2.000000
       109                     -0.335007                 2.000000
       110                     -0.334973                 2.000000
       111                     -0.334953                 2.000000
       112                     -0.334694                 2.000000
       113                      0.010779                 2.000000
       114                      0.011847                 2.000000
       115                      0.012611                 2.000000
       116                      0.024404                 2.000000
       117                      0.035668                 2.000000
       118                      0.037819                 2.000000
       119                      0.050488                 2.000000
       120                      0.052046                 2.000000
       121                      0.052683                 2.000000
       122                      0.054826                 2.000000
       123                      0.056604                 2.000000
       124                      0.059267                 2.000000
       125                      0.060169                 2.000000
       126                      0.061845                 2.000000
       127                      0.061902                 2.000000
       128                      0.062441                 0.000000
       129                      0.063133                 0.000000
       130                      0.065589                 0.000000
       131                      0.066584                 0.000000
       132                      0.068477                 0.000000
       133                      0.071201                 0.000000
       134                      0.072052                 0.000000
       135                      0.073566                 0.000000
       136                      0.074660                 0.000000
# Sum                                                  254.000000

  Fermi energy:                 0.062223

  HOMO-LUMO gap:                0.000057 =   0.00 eV



 MO EIGENVALUES AND MO OCCUPATION NUMBERS FOR K-POINT:     5

# MO index          MO eigenvalue [a.u.]            MO occupation
         1                     -0.821550                 2.000000
         2                     -0.821528                 2.000000
         3                     -0.821324                 2.000000
         4                     -0.821302                 2.000000
         5                     -0.821161                 2.000000
         6                     -0.821132                 2.000000
         7                     -0.820856                 2.000000
         8                     -0.820845                 2.000000
         9                     -0.820824                 2.000000
        10                     -0.820815                 2.000000
        11                     -0.820796                 2.000000
        12                     -0.820782                 2.000000
        13                     -0.820776                 2.000000
        14                     -0.820756                 2.000000
        15                     -0.820724                 2.000000
        16                     -0.820687                 2.000000
        17                     -0.820651                 2.000000
        18                     -0.820638                 2.000000
        19                     -0.820567                 2.000000
        20                     -0.820539                 2.000000
        21                     -0.820519                 2.000000
        22                     -0.820488                 2.000000
        23                     -0.820399                 2.000000
        24                     -0.820392                 2.000000
        25                     -0.820375                 2.000000
        26                     -0.820341                 2.000000
        27                     -0.820322                 2.000000
        28                     -0.820289                 2.000000
        29                     -0.340513                 2.000000
        30                     -0.340373                 2.000000
        31                     -0.339786                 2.000000
        32                     -0.339477                 2.000000
        33                     -0.339328                 2.000000
        34                     -0.339298                 2.000000
        35                     -0.339236                 2.000000
        36                     -0.339175                 2.000000
        37                     -0.339112                 2.000000
        38                     -0.338983                 2.000000
        39                     -0.338860                 2.000000
        40                     -0.338767                 2.000000
        41                     -0.338761                 2.000000
        42                     -0.338706                 2.000000
        43                     -0.338647                 2.000000
        44                     -0.338584                 2.000000
        45                     -0.338558                 2.000000
        46                     -0.338454                 2.000000
        47                     -0.338313                 2.000000
        48                     -0.338241                 2.000000
        49                     -0.338138                 2.000000
        50                     -0.338124                 2.000000
        51                     -0.338013                 2.000000
        52                     -0.337913                 2.000000
        53                     -0.337732                 2.000000
        54                     -0.337708                 2.000000
        55                     -0.337657                 2.000000
        56                     -0.337553                 2.000000
        57                     -0.337456                 2.000000
        58                     -0.337410                 2.000000
        59                     -0.337383                 2.000000
        60                     -0.337226                 2.000000
        61                     -0.337166                 2.000000
        62                     -0.337128                 2.000000
        63                     -0.336920                 2.000000
        64                     -0.336913                 2.000000
        65                     -0.336861                 2.000000
        66                     -0.336822                 2.000000
        67                     -0.336793                 2.000000
        68                     -0.336660                 2.000000
        69                     -0.336654                 2.000000
        70                     -0.336613                 2.000000
        71                     -0.336533                 2.000000
        72                     -0.336512                 2.000000
        73                     -0.336466                 2.000000
        74                     -0.336439                 2.000000
        75                     -0.336394                 2.000000
        76                     -0.336373                 2.000000
        77                     -0.336272                 2.000000
        78                     -0.336229                 2.000000
        79                     -0.336216                 2.000000
        80                     -0.336173                 2.000000
        81                     -0.336130                 2.000000
        82                     -0.336085                 2.000000
        83                     -0.336034                 2.000000
        84                     -0.335995                 2.000000
        85                     -0.335964                 2.000000
        86                     -0.335927                 2.000000
        87                     -0.335880                 2.000000
        88                     -0.335840                 2.000000
        89                     -0.335832                 2.000000
        90                     -0.335796                 2.000000
        91                     -0.335792                 2.000000
        92                     -0.335733                 2.000000
        93                     -0.335696                 2.000000
        94                     -0.335631                 2.000000
        95                     -0.335611                 2.000000
        96                     -0.335595                 2.000000
        97                     -0.335567                 2.000000
        98                     -0.335530                 2.000000
        99                     -0.335484                 2.000000
       100                     -0.335445                 2.000000
       101                     -0.335389                 2.000000
       102                     -0.335364                 2.000000
       103                     -0.335282                 2.000000
       104                     -0.335239                 2.000000
       105                     -0.335224                 2.000000
       106                     -0.335170                 2.000000
       107                     -0.335122                 2.000000
       108                     -0.335082                 2.000000
       109                     -0.335025                 2.000000
       110                     -0.334996                 2.000000
       111                     -0.334972                 2.000000
       112                     -0.334692                 2.000000
       113                      0.009733                 2.000000
       114                      0.012300                 2.000000
       115                      0.016338                 2.000000
       116                      0.024622                 2.000000
       117                      0.029172                 2.000000
       118                      0.040681                 2.000000
       119                      0.045270                 2.000000
       120                      0.048074                 2.000000
       121                      0.051658                 2.000000
       122                      0.056716                 2.000000
       123                      0.058188                 2.000000
       124                      0.058345                 2.000000
       125                      0.059818                 2.000000
       126                      0.060834                 2.000000
       127                      0.063353                 0.000000
       128                      0.066677                 0.000000
       129                      0.066808                 0.000000
       130                      0.067351                 0.000000
       131                      0.067978                 0.000000
       132                      0.069598                 0.000000
       133                      0.070241                 0.000000
       134                      0.070995                 0.000000
       135                      0.071128                 0.000000
       136                      0.077031                 0.000000
# Sum                                                  252.000000

  Fermi energy:                 0.062223

  HOMO-LUMO gap:                0.002519 =   0.07 eV



 MO EIGENVALUES AND MO OCCUPATION NUMBERS FOR K-POINT:     6

# MO index          MO eigenvalue [a.u.]            MO occupation
         1                     -0.821550                 2.000000
         2                     -0.821528                 2.000000
         3                     -0.821324                 2.000000
         4                     -0.821302                 2.000000
         5                     -0.821161                 2.000000
         6                     -0.821132                 2.000000
         7                     -0.820858                 2.000000
         8                     -0.820841                 2.000000
         9                     -0.820821                 2.000000
        10                     -0.820813                 2.000000
        11                     -0.820799                 2.000000
        12                     -0.820787                 2.000000
        13                     -0.820775                 2.000000
        14                     -0.820754                 2.000000
        15                     -0.820729                 2.000000
        16                     -0.820699                 2.000000
        17                     -0.820641                 2.000000
        18                     -0.820635                 2.000000
        19                     -0.820567                 2.000000
        20                     -0.820541                 2.000000
        21                     -0.820517                 2.000000
        22                     -0.820488                 2.000000
        23                     -0.820398                 2.000000
        24                     -0.820392                 2.000000
        25                     -0.820375                 2.000000
        26                     -0.820340                 2.000000
        27                     -0.820321                 2.000000
        28                     -0.820289                 2.000000
        29                     -0.340503                 2.000000
        30                     -0.340410                 2.000000
        31                     -0.339859                 2.000000
        32                     -0.339513                 2.000000
        33                     -0.339402                 2.000000
        34                     -0.339336                 2.000000
        35                     -0.339207                 2.000000
        36                     -0.339198                 2.000000
        37                     -0.339086                 2.000000
        38                     -0.339036                 2.000000
        39                     -0.338908                 2.000000
        40                     -0.338863                 2.000000
        41                     -0.338805                 2.000000
        42                     -0.338700                 2.000000
        43                     -0.338620                 2.000000
        44                     -0.338537                 2.000000
        45                     -0.338479                 2.000000
        46                     -0.338374                 2.000000
        47                     -0.338263                 2.000000
        48                     -0.338248                 2.000000
        49                     -0.338122                 2.000000
        50                     -0.338062                 2.000000
        51                     -0.337961                 2.000000
        52                     -0.337827                 2.000000
        53                     -0.337763                 2.000000
        54                     -0.337651                 2.000000
        55                     -0.337537                 2.000000
        56                     -0.337521                 2.000000
        57                     -0.337458                 2.000000
        58                     -0.337378                 2.000000
        59                     -0.337223                 2.000000
        60                     -0.337196                 2.000000
        61                     -0.337167                 2.000000
        62                     -0.337131                 2.000000
        63                     -0.336970                 2.000000
        64                     -0.336952                 2.000000
        65                     -0.336909                 2.000000
        66                     -0.336883                 2.000000
        67                     -0.336784                 2.000000
        68                     -0.336753                 2.000000
        69                     -0.336705                 2.000000
        70                     -0.336629                 2.000000
        71                     -0.336564                 2.000000
        72                     -0.336499                 2.000000
        73                     -0.336471                 2.000000
        74                     -0.336449                 2.000000
        75                     -0.336405                 2.000000
        76                     -0.336378                 2.000000
        77                     -0.336311                 2.000000
        78                     -0.336234                 2.000000
        79                     -0.336209                 2.000000
        80                     -0.336183                 2.000000
        81                     -0.336138                 2.000000
        82                     -0.336116                 2.000000
        83                     -0.336047                 2.000000
        84                     -0.336025                 2.000000
        85                     -0.335944                 2.000000
        86                     -0.335912                 2.000000
        87                     -0.335858                 2.000000
        88                     -0.335837                 2.000000
        89                     -0.335808                 2.000000
        90                     -0.335765                 2.000000
        91                     -0.335740                 2.000000
        92                     -0.335695                 2.000000
        93                     -0.335648                 2.000000
        94                     -0.335586                 2.000000
        95                     -0.335571                 2.000000
        96                     -0.335564                 2.000000
        97                     -0.335524                 2.000000
        98                     -0.335517                 2.000000
        99                     -0.335489                 2.000000
       100                     -0.335452                 2.000000
       101                     -0.335413                 2.000000
       102                     -0.335357                 2.000000
       103                     -0.335309                 2.000000
       104                     -0.335289                 2.000000
       105                     -0.335227                 2.000000
       106                     -0.335212                 2.000000
       107                     -0.335163                 2.000000
       108                     -0.335130                 2.000000
       109                     -0.335070                 2.000000
       110                     -0.335031                 2.000000
       111                     -0.334965                 2.000000
       112                     -0.334699                 2.000000
       113                      0.009450                 2.000000
       114                      0.015764                 2.000000
       115                      0.021718                 2.000000
       116                      0.022176                 2.000000
       117                      0.026615                 2.000000
       118                      0.031875                 2.000000
       119                      0.044817                 2.000000
       120                      0.048183                 2.000000
       121                      0.049245                 2.000000
       122                      0.049843                 2.000000
       123                      0.054906                 2.000000
       124                      0.055529                 2.000000
       125                      0.061204                 2.000000
       126                      0.062239                 0.000000
       127                      0.064241                 0.000000
       128                      0.065902                 0.000000
       129                      0.068317                 0.000000
       130                      0.070320                 0.000000
       131                      0.073426                 0.000000
       132                      0.075070                 0.000000
       133                      0.075595                 0.000000
       134                      0.076215                 0.000000
       135                      0.078761                 0.000000
       136                      0.079695                 0.000000
# Sum                                                  250.000000

  Fermi energy:                 0.062223



 MO EIGENVALUES AND MO OCCUPATION NUMBERS FOR K-POINT:     7

# MO index          MO eigenvalue [a.u.]            MO occupation
         1                     -0.821550                 2.000000
         2                     -0.821528                 2.000000
         3                     -0.821324                 2.000000
         4                     -0.821302                 2.000000
         5                     -0.821160                 2.000000
         6                     -0.821132                 2.000000
         7                     -0.820860                 2.000000
         8                     -0.820837                 2.000000
         9                     -0.820822                 2.000000
        10                     -0.820809                 2.000000
        11                     -0.820799                 2.000000
        12                     -0.820792                 2.000000
        13                     -0.820776                 2.000000
        14                     -0.820750                 2.000000
        15                     -0.820735                 2.000000
        16                     -0.820707                 2.000000
        17                     -0.820636                 2.000000
        18                     -0.820632                 2.000000
        19                     -0.820565                 2.000000
        20                     -0.820543                 2.000000
        21                     -0.820517                 2.000000
        22                     -0.820489                 2.000000
        23                     -0.820398                 2.000000
        24                     -0.820392                 2.000000
        25                     -0.820374                 2.000000
        26                     -0.820340                 2.000000
        27                     -0.820321                 2.000000
        28                     -0.820289                 2.000000
        29                     -0.340516                 2.000000
        30                     -0.340431                 2.000000
        31                     -0.339874                 2.000000
        32                     -0.339554                 2.000000
        33                     -0.339464                 2.000000
        34                     -0.339385                 2.000000
        35                     -0.339247                 2.000000
        36                     -0.339189                 2.000000
        37                     -0.339140                 2.000000
        38                     -0.339010                 2.000000
        39                     -0.338981                 2.000000
        40                     -0.338878                 2.000000
        41                     -0.338789                 2.000000
        42                     -0.338683                 2.000000
        43                     -0.338524                 2.000000
        44                     -0.338506                 2.000000
        45                     -0.338379                 2.000000
        46                     -0.338337                 2.000000
        47                     -0.338206                 2.000000
        48                     -0.338133                 2.000000
        49                     -0.338054                 2.000000
        50                     -0.338023                 2.000000
        51                     -0.338013                 2.000000
        52                     -0.337859                 2.000000
        53                     -0.337816                 2.000000
        54                     -0.337624                 2.000000
        55                     -0.337577                 2.000000
        56                     -0.337560                 2.000000
        57                     -0.337465                 2.000000
        58                     -0.337333                 2.000000
        59                     -0.337313                 2.000000
        60                     -0.337253                 2.000000
        61                     -0.337135                 2.000000
        62                     -0.337130                 2.000000
        63                     -0.336986                 2.000000
        64                     -0.336925                 2.000000
        65                     -0.336867                 2.000000
        66                     -0.336842                 2.000000
        67                     -0.336796                 2.000000
        68                     -0.336742                 2.000000
        69                     -0.336670                 2.000000
        70                     -0.336572                 2.000000
        71                     -0.336564                 2.000000
        72                     -0.336507                 2.000000
        73                     -0.336440                 2.000000
        74                     -0.336400                 2.000000
        75                     -0.336385                 2.000000
        76                     -0.336350                 2.000000
        77                     -0.336340                 2.000000
        78                     -0.336215                 2.000000
        79                     -0.336205                 2.000000
        80                     -0.336188                 2.000000
        81                     -0.336182                 2.000000
        82                     -0.336114                 2.000000
        83                     -0.336069                 2.000000
        84                     -0.336027                 2.000000
        85                     -0.335975                 2.000000
        86                     -0.335923                 2.000000
        87                     -0.335903                 2.000000
        88                     -0.335879                 2.000000
        89                     -0.335811                 2.000000
        90                     -0.335795                 2.000000
        91                     -0.335730                 2.000000
        92                     -0.335674                 2.000000
        93                     -0.335605                 2.000000
        94                     -0.335580                 2.000000
        95                     -0.335575                 2.000000
        96                     -0.335547                 2.000000
        97                     -0.335526                 2.000000
        98                     -0.335477                 2.000000
        99                     -0.335469                 2.000000
       100                     -0.335431                 2.000000
       101                     -0.335421                 2.000000
       102                     -0.335365                 2.000000
       103                     -0.335355                 2.000000
       104                     -0.335311                 2.000000
       105                     -0.335260                 2.000000
       106                     -0.335213                 2.000000
       107                     -0.335177                 2.000000
       108                     -0.335162                 2.000000
       109                     -0.335075                 2.000000
       110                     -0.335059                 2.000000
       111                     -0.334952                 2.000000
       112                     -0.334709                 2.000000
       113                      0.011143                 2.000000
       114                      0.016269                 2.000000
       115                      0.021040                 2.000000
       116                      0.024007                 2.000000
       117                      0.029169                 2.000000
       118                      0.030756                 2.000000
       119                      0.038419                 2.000000
       120                      0.041494                 2.000000
       121                      0.043093                 2.000000
       122                      0.049021                 2.000000
       123                      0.053364                 2.000000
       124                      0.058612                 2.000000
       125                      0.062393                 0.000000
       126                      0.062905                 0.000000
       127                      0.065893                 0.000000
       128                      0.069684                 0.000000
       129                      0.072598                 0.000000
       130                      0.073687                 0.000000
       131                      0.076913                 0.000000
       132                      0.077241                 0.000000
       133                      0.078035                 0.000000
       134                      0.078556                 0.000000
       135                      0.079449                 0.000000
       136                      0.082371                 0.000000
# Sum                                                  248.000000

  Fermi energy:                 0.062223



 MO EIGENVALUES AND MO OCCUPATION NUMBERS FOR K-POINT:     8

# MO index          MO eigenvalue [a.u.]            MO occupation
         1                     -0.821549                 2.000000
         2                     -0.821529                 2.000000
         3                     -0.821322                 2.000000
         4                     -0.821304                 2.000000
         5                     -0.821158                 2.000000
         6                     -0.821134                 2.000000
         7                     -0.820858                 2.000000
         8                     -0.820839                 2.000000
         9                     -0.820824                 2.000000
        10                     -0.820808                 2.000000
        11                     -0.820796                 2.000000
        12                     -0.820789                 2.000000
        13                     -0.820779                 2.000000
        14                     -0.820750                 2.000000
        15                     -0.820736                 2.000000
        16                     -0.820708                 2.000000
        17                     -0.820636                 2.000000
        18                     -0.820632                 2.000000
        19                     -0.820566                 2.000000
        20                     -0.820541                 2.000000
        21                     -0.820519                 2.000000
        22                     -0.820489                 2.000000
        23                     -0.820398                 2.000000
        24                     -0.820391                 2.000000
        25                     -0.820374                 2.000000
        26                     -0.820336                 2.000000
        27                     -0.820326                 2.000000
        28                     -0.820289                 2.000000
        29                     -0.340413                 2.000000
        30                     -0.340115                 2.000000
        31                     -0.340041                 2.000000
        32                     -0.339522                 2.000000
        33                     -0.339477                 2.000000
        34                     -0.339404                 2.000000
        35                     -0.339332                 2.000000
        36                     -0.339250                 2.000000
        37                     -0.339146                 2.000000
        38                     -0.339114                 2.000000
        39                     -0.338981                 2.000000
        40                     -0.338957                 2.000000
        41                     -0.338842                 2.000000
        42                     -0.338727                 2.000000
        43                     -0.338620                 2.000000
        44                     -0.338509                 2.000000
        45                     -0.338366                 2.000000
        46                     -0.338349                 2.000000
        47                     -0.338274                 2.000000
        48                     -0.338170                 2.000000
        49                     -0.338027                 2.000000
[...]
        37                     -0.339031                 2.000000
        38                     -0.338877                 2.000000
        39                     -0.338785                 2.000000
        40                     -0.338747                 2.000000
        41                     -0.338639                 2.000000
        42                     -0.338496                 2.000000
        43                     -0.338489                 2.000000
        44                     -0.338406                 2.000000
        45                     -0.338335                 2.000000
        46                     -0.338324                 2.000000
        47                     -0.338293                 2.000000
        48                     -0.338238                 2.000000
        49                     -0.338221                 2.000000
        50                     -0.338089                 2.000000
        51                     -0.337983                 2.000000
        52                     -0.337923                 2.000000
        53                     -0.337804                 2.000000
        54                     -0.337796                 2.000000
        55                     -0.337686                 2.000000
        56                     -0.337565                 2.000000
        57                     -0.337446                 2.000000
        58                     -0.337429                 2.000000
        59                     -0.337388                 2.000000
        60                     -0.337337                 2.000000
        61                     -0.337305                 2.000000
        62                     -0.337249                 2.000000
        63                     -0.337138                 2.000000
        64                     -0.337096                 2.000000
        65                     -0.337029                 2.000000
        66                     -0.337004                 2.000000
        67                     -0.336890                 2.000000
        68                     -0.336848                 2.000000
        69                     -0.336784                 2.000000
        70                     -0.336720                 2.000000
        71                     -0.336625                 2.000000
        72                     -0.336539                 2.000000
        73                     -0.336492                 2.000000
        74                     -0.336447                 2.000000
        75                     -0.336374                 2.000000
        76                     -0.336365                 2.000000
        77                     -0.336289                 2.000000
        78                     -0.336246                 2.000000
        79                     -0.336218                 2.000000
        80                     -0.336135                 2.000000
        81                     -0.336042                 2.000000
        82                     -0.336025                 2.000000
        83                     -0.335970                 2.000000
        84                     -0.335953                 2.000000
        85                     -0.335933                 2.000000
        86                     -0.335875                 2.000000
        87                     -0.335859                 2.000000
        88                     -0.335788                 2.000000
        89                     -0.335769                 2.000000
        90                     -0.335743                 2.000000
        91                     -0.335723                 2.000000
        92                     -0.335685                 2.000000
        93                     -0.335661                 2.000000
        94                     -0.335653                 2.000000
        95                     -0.335595                 2.000000
        96                     -0.335567                 2.000000
        97                     -0.335540                 2.000000
        98                     -0.335531                 2.000000
        99                     -0.335473                 2.000000
       100                     -0.335449                 2.000000
       101                     -0.335407                 2.000000
       102                     -0.335400                 2.000000
       103                     -0.335355                 2.000000
       104                     -0.335272                 2.000000
       105                     -0.335199                 2.000000
       106                     -0.335198                 2.000000
       107                     -0.335142                 2.000000
       108                     -0.335075                 2.000000
       109                     -0.335069                 2.000000
       110                     -0.334865                 2.000000
       111                     -0.334832                 2.000000
       112                     -0.334571                 2.000000
       113                     -0.000997                 2.000000
       114                      0.027414                 2.000000
       115                      0.027767                 2.000000
       116                      0.028336                 2.000000
       117                      0.030946                 2.000000
       118                      0.043537                 2.000000
       119                      0.043801                 2.000000
       120                      0.044791                 2.000000
       121                      0.045058                 2.000000
       122                      0.045385                 2.000000
       123                      0.047628                 2.000000
       124                      0.048044                 2.000000
       125                      0.048756                 2.000000
       126                      0.055344                 2.000000
       127                      0.056557                 2.000000
       128                      0.057404                 2.000000
       129                      0.066364                 0.000000
       130                      0.076617                 0.000000
       131                      0.078133                 0.000000
       132                      0.079023                 0.000000
       133                      0.082659                 0.000000
       134                      0.083965                 0.000000
       135                      0.085319                 0.000000
       136                      0.085414                 0.000000
# Sum                                                  256.000000

  Fermi energy:                 0.062223

  HOMO-LUMO gap:                0.001213 =   0.03 eV


 ENERGY| Total FORCE_EVAL ( QS ) energy [a.u.]:             -563.631949619997840

 -------------------------------------------------------------------------------
 -                                                                             -
 -                                DBCSR STATISTICS                             -
 -                                                                             -
 -------------------------------------------------------------------------------
 COUNTER                                    TOTAL       BLAS       SMM       ACC
 flops inhomo. stacks                           0       0.0%      0.0%      0.0%
 flops total                         0.000000E+00       0.0%      0.0%      0.0%
 flops max/rank                      0.000000E+00       0.0%      0.0%      0.0%
 matmuls inhomo. stacks                         0       0.0%      0.0%      0.0%
 matmuls total                                  0       0.0%      0.0%      0.0%
 number of processed stacks                     0       0.0%      0.0%      0.0%
 average stack size                                     0.0       0.0       0.0
 marketing flops                     0.000000E+00
 -------------------------------------------------------------------------------
 -                                                                             -
 -                      DBCSR MESSAGE PASSING PERFORMANCE                      -
 -                                                                             -
 -------------------------------------------------------------------------------
 ROUTINE             CALLS      AVE VOLUME [Bytes]
 MP_Bcast                1                     12.
 MP_Allreduce          468                      9.
 MP_Alltoall         29536                  45089.
 -------------------------------------------------------------------------------

 -------------------------------------------------------------------------------
 -                                                                             -
 -                                GRID STATISTICS                              -
 -                                                                             -
 -------------------------------------------------------------------------------
 LP    KERNEL             BACKEND                              COUNT     PERCENT
 4     collocate general  REF                                  78975      55.54%
 4     integrate general  REF                                  63180      44.44%
 0     collocate general  REF                                     28       0.02%
 -------------------------------------------------------------------------------

 MEMORY| Estimated peak process memory [MiB]                                 508

 -------------------------------------------------------------------------------
 -                                                                             -
 -                         MESSAGE PASSING PERFORMANCE                         -
 -                                                                             -
 -------------------------------------------------------------------------------

 ROUTINE             CALLS      AVE VOLUME [Bytes]
 MP_Group                5
 MP_Bcast            12735                  32373.
 MP_Allreduce          657                   1094.
 MP_Sync                 4
 MP_Alltoall            77                9383799.
 MP_ISendRecv          407                 576311.
 MP_Wait             10967
 MP_ISend            14784                  16475.
 MP_IRecv            14784                  16475.
 MP_Recv               616                 100352.
 -------------------------------------------------------------------------------


 -------------------------------------------------------------------------------
 -                                                                             -
 -                           R E F E R E N C E S                               -
 -                                                                             -
 -------------------------------------------------------------------------------
 
 CP2K version 8.1, the CP2K developers group (2020).
 CP2K is freely available from https://www.cp2k.org/ .

 Kuehne,Thomas D.; Iannuzzi,Marcella; Del Ben,Mauro;
 Rybkin,Vladimir V.; Seewald,Patrick; Stein,Frederick; Laino,Teodoro;
 Khaliullin,Rustam Z.; Schuett,Ole; Schiffmann,Florian; Golze,Dorothea;
 Wilhelm,Jan; Chulkov,Sergey; Bani-Hashemian,Mohammad Hossein;
 Weber,Valery; Borstnik,Urban; Taillefumier,Mathieu;
 Jakobovits,Alice Shoshana; Lazzaro,Alfio; Pabst,Hans; Mueller,Tiziano;
 Schade,Robert; Guidon,Manuel; Andermatt,Samuel; Holmberg,Nico;
 Schenter,Gregory K.; Hehn,Anna; Bussy,Augustin; Belleflamme,Fabian;
 Tabacchi,Gloria; Gloess,Andreas; Lass,Michael; Bethune,Iain;
 Mundy,Christopher J.; Plessl,Christian; Watkins,Matt;
 VandeVondele,Joost; Krack,Matthias; Hutter,Juerg. 
 The Journal of Chemical Physics, 152 (19), (2020). 
 CP2K: An electronic structure and molecular dynamics software package -
 Quickstep: Efficient and accurate electronic structure calculations.
 https://doi.org/10.1063/5.0007045

 Togo, Atsushi; Tanaka, Isao. arXiv, 1808.01590 (2018). 
 Spglib : a software library for crystal symmetry search.
 https://doi.org/xxx

 Schuett, Ole; Messmer, Peter; Hutter, Juerg; VandeVondele, Joost. 
 Electronic Structure Calculations on Graphics Processing Units, John
 Wiley & Sons, Ltd, 173-190 (2016). 
 GPU-Accelerated Sparse Matrix-Matrix Multiplication for
 Linear Scaling Density Functional Theory.
 https://doi.org/10.1002/9781118670712.ch8

 Borstnik, U; VandeVondele, J; Weber, V; Hutter, J. 
 PARALLEL COMPUTING, 40 (5-6), 47-58 (2014). 
 Sparse matrix multiplication: The distributed block-compressed sparse
 row library.
 https://doi.org/10.1016/j.parco.2014.03.012

 Hutter, J; Iannuzzi, M; Schiffmann, F; VandeVondele, J. 
 WIREs Comput Mol Sci., 4 (1), 15-25 (2014). 
 CP2K: atomistic simulations of condensed matter systems.
 https://doi.org/10.1002/wcms.1159

 VandeVondele, J; Hutter, J. 
 JOURNAL OF CHEMICAL PHYSICS, 127 (11), 114105 (2007). 
 Gaussian basis sets for accurate calculations on molecular systems in
 gas and condensed phases.
 https://doi.org/10.1063/1.2770708

 Krack, M. 
 THEORETICAL CHEMISTRY ACCOUNTS, 114 (1-3), 145-152 (2005). 
 Pseudopotentials for H to Kr optimized for gradient-corrected
 exchange-correlation functionals.
 https://doi.org/10.1007/s00214-005-0655-y

 VandeVondele, J; Krack, M; Mohamed, F; Parrinello, M; Chassaing, T;
 Hutter, J. COMPUTER PHYSICS COMMUNICATIONS, 167 (2), 103-128 (2005). 
 QUICKSTEP: Fast and accurate density functional calculations using a
 mixed Gaussian and plane waves approach.
 https://doi.org/10.1016/j.cpc.2004.12.014

 Frigo, M; Johnson, SG. 
 PROCEEDINGS OF THE IEEE, 93 (2), 216-231 (2005). 
 The design and implementation of FFTW3.
 https://doi.org/10.1109/JPROC.2004.840301

 Hartwigsen, C; Goedecker, S; Hutter, J. 
 PHYSICAL REVIEW B, 58 (7), 3641-3662 (1998). 
 Relativistic separable dual-space Gaussian pseudopotentials from H to Rn.
 https://doi.org/10.1103/PhysRevB.58.3641

 Lippert, G; Hutter, J; Parrinello, M. 
 MOLECULAR PHYSICS, 92 (3), 477-487 (1997). 
 A hybrid Gaussian and plane wave density functional scheme.
 https://doi.org/10.1080/002689797170220

 Perdew, JP; Burke, K; Ernzerhof, M. 
 PHYSICAL REVIEW LETTERS, 77 (18), 3865-3868 (1996). 
 Generalized gradient approximation made simple.
 https://doi.org/10.1103/PhysRevLett.77.3865

 Goedecker, S; Teter, M; Hutter, J. 
 PHYSICAL REVIEW B, 54 (3), 1703-1710 (1996). 
 Separable dual-space Gaussian pseudopotentials.
 https://doi.org/10.1103/PhysRevB.54.1703


 -------------------------------------------------------------------------------
 -                                                                             -
 -                                T I M I N G                                  -
 -                                                                             -
 -------------------------------------------------------------------------------
 SUBROUTINE                       CALLS  ASD         SELF TIME        TOTAL TIME
                                MAXIMUM       AVERAGE  MAXIMUM  AVERAGE  MAXIMUM
 CP2K                                 1  1.0    0.021    0.024   33.931   33.932
 qs_energies                          1  2.0    0.003    0.003   33.004   33.654
 scf_env_do_scf                       1  3.0    0.000    0.000   32.257   32.869
 scf_env_do_scf_inner_loop            4  4.0    0.003    0.004   32.257   32.869
 qs_scf_new_mos_kp                    4  5.0    0.000    0.000   28.156   28.423
 do_general_diag_kp                   4  6.0    0.011    0.012   28.156   28.423
 cp_cfm_geeig                       352  7.0    0.007    0.007   22.604   22.624
 cp_cfm_heevd                       352  8.0   15.629   15.869   15.629   15.869
 cp_cfm_triangular_multiply        1056  8.0    4.918    5.365    4.918    5.365
 qs_ks_update_qs_env                  4  5.0    0.000    0.000    2.277    2.539
 rebuild_ks_matrix                    4  6.0    0.000    0.000    2.257    2.519
 qs_ks_build_kohn_sham_matrix         4  7.0    0.001    0.002    2.257    2.519
 mp_alltoall_i22                   5040  8.8    1.600    2.060    1.600    2.060
 qs_rho_update_rho                    5  5.0    0.000    0.000    1.845    1.847
 calculate_rho_elec                   5  6.0    0.008    0.009    1.845    1.847
 dbcsr_desymmetrize_deep           2872  7.5    0.140    0.160    1.446    1.793
 dbcsr_complete_redistribute       2168  8.3    0.269    0.283    1.607    1.739
 copy_dbcsr_to_fm                  1464  7.0    0.016    0.017    1.537    1.657
 sum_up_and_integrate                 4  8.0    0.003    0.004    1.187    1.445
 integrate_v_rspace                   4  9.0    0.001    0.001    1.183    1.441
 grid_collocate_task_list             5  7.0    1.095    1.424    1.095    1.424
 kpoint_density_transform             4  7.0    0.003    0.006    1.250    1.250
 pw_transfer                         85  9.4    0.004    0.006    1.189    1.210
 grid_integrate_task_list             4 10.0    0.939    1.200    0.939    1.200
 fft_wrap_pw1pw2                     77 10.4    0.001    0.001    1.176    1.196
 fft_wrap_pw1pw2_100                 50 11.4    0.074    0.089    1.114    1.132
 cp_cfm_cholesky_decompose          352  8.0    1.042    1.106    1.042    1.106
 fft3d_ps                            77 12.4    0.481    0.530    0.944    1.004
 density_rs2pw                        5  7.0    0.000    0.000    0.736    0.946
 qs_vxc_create                        4  8.0    0.000    0.000    0.921    0.934
 xc_vxc_pw_create                     4  9.0    0.009    0.018    0.921    0.934
 kpoint_density_matrices              4  7.0    0.008    0.009    0.877    0.878
 cp_gemm                           1408  8.0    0.002    0.003    0.864    0.866
 cp_gemm_fm_gemm                   1408  9.0    0.001    0.001    0.862    0.864
 cp_fm_gemm                        1408 10.0    0.861    0.863    0.861    0.863
 rs_pw_transfer                      37  9.2    0.000    0.000    0.631    0.839
 write_kpoints_restart                4  5.0    0.056    0.670    0.188    0.800
 copy_fm_to_dbcsr                   704  8.0    0.003    0.003    0.741    0.779
 mp_sum_i                             3  2.3    0.650    0.709    0.650    0.709
 restraint_control                    1  2.0    0.000    0.000    0.650    0.709
 cp_cfm_triangular_invert           352  8.0    0.669    0.698    0.669    0.698
 mp_waitall_1                     10967  8.5    0.463    0.692    0.463    0.692
 -------------------------------------------------------------------------------

 The number of warnings for this run is : 2
 
 -------------------------------------------------------------------------------
  **** **** ******  **  PROGRAM ENDED AT                 2021-06-03 18:37:22.206
 ***** ** ***  *** **   PROGRAM RAN ON                                   mpcl100
 **    ****   ******    PROGRAM RAN BY                                  pubo1141
 ***** **    ** ** **   PROGRAM PROCESS ID                                  6396
  **** **  *******  **  PROGRAM STOPPED IN /user/pubo1141/simulations/aiida_test
                                           s/cp2k_8.1/eigenvalues_changing_chara
                                           cter_low
[1622738242.470946] [mpcl100:6402 :0]          mpool.c:38   UCX  WARN  object 0xf8b2f80 was not returned to mpool ucp_requests
[1622738242.475232] [mpcl100:6403 :0]          mpool.c:38   UCX  WARN  object 0x273491c0 was not returned to mpool ucp_requests
[1622738242.475215] [mpcl100:6406 :0]          mpool.c:38   UCX  WARN  object 0x27520500 was not returned to mpool ucp_requests
[1622738242.473931] [mpcl100:6405 :0]          mpool.c:38   UCX  WARN  object 0x28a36680 was not returned to mpool ucp_requests
[1622738242.474333] [mpcl100:6404 :0]          mpool.c:38   UCX  WARN  object 0x26b3d440 was not returned to mpool ucp_requests
[1622738242.482937] [mpcl100:6407 :0]          mpool.c:38   UCX  WARN  object 0x271a8e40 was not returned to mpool ucp_requests
