       4
 i =        1, E =       -65.9870650554
 Cs         3.3060496842        1.9087901541        1.3497473808
 Cs         9.9182133093        5.7264064709        4.0492676123
 Cs         6.6121315069        3.8175981799        2.6995074294
 Sb         0.0000000008        0.0000000000        0.0000000030
       4
 i =        2, E =       -65.9871076776
 Cs         3.3108260031        1.9150661716        1.3566352793
 Cs         9.9380921769        5.7483581448        4.0721448060
 Cs         6.6244456669        3.8316817251        2.7143707844
 Sb        -0.0000011284       -0.0000062014       -0.0000041475
       4
 i =        3, E =       -65.9871077035
 Cs         3.3109342993        1.9151897978        1.3567676904
 Cs         9.9386203034        5.7488723020        4.0726437565
 Cs         6.6247638092        3.8320005307        2.7146864111
 Sb        -0.0000010603       -0.0000060704       -0.0000040666
       4
 i =        4, E =       -65.9871077035
 Cs         3.3109342993        1.9151897978        1.3567676904
 Cs         9.9386203034        5.7488723020        4.0726437565
 Cs         6.6247638092        3.8320005307        2.7146864111
 Sb        -0.0000010603       -0.0000060704       -0.0000040666
