 DBCSR| CPU Multiplication driver                                           XSMM
 DBCSR| Multrec recursion limit                                              512
 DBCSR| Multiplication stack size                                           1000
 DBCSR| Maximum elements for images                                    UNLIMITED
 DBCSR| Multiplicative factor virtual images                                   1
 DBCSR| Use multiplication densification                                       T
 DBCSR| Multiplication size stacks                                             3
 DBCSR| Use memory pool for CPU allocation                                     F
 DBCSR| Number of 3D layers                                               SINGLE
 DBCSR| Use MPI memory allocation                                              F
 DBCSR| Use RMA algorithm                                                      F
 DBCSR| Use Communication thread                                               T
 DBCSR| Communication thread load                                             83
 DBCSR| MPI: My node id                                                        0
 DBCSR| MPI: Number of nodes                                                  12
 DBCSR| OMP: Current number of threads                                         2
 DBCSR| OMP: Max number of threads                                             2
 DBCSR| Split modifier for TAS multiplication algorithm                  1.0E+00


  **** **** ******  **  PROGRAM STARTED AT               2022-01-03 14:36:36.810
 ***** ** ***  *** **   PROGRAM STARTED ON                               mpcl037
 **    ****   ******    PROGRAM STARTED BY                              pubo1141
 ***** **    ** ** **   PROGRAM PROCESS ID                                 25357
  **** **  *******  **  PROGRAM STARTED IN /user/pubo1141/simulations/aiida_test
                                           s/cp2k_8.1/cell_opt_low

 CP2K| version string:                                          CP2K version 8.1
 CP2K| source code revision number:                                  git:0b61f2f
 CP2K| cp2kflags: omp libint fftw3 libxc parallel mpi3 scalapack xsmm spglib mkl
 CP2K|             libvori libbqb
 CP2K| is freely available from                            https://www.cp2k.org/
 CP2K| Program compiled at                         Thu May 27 13:34:22 CEST 2021
 CP2K| Program compiled on                                               hpcl001
 CP2K| Program compiled for                                        carl-mkl-ompi
 CP2K| Data directory path            /user/pubo1141/software/cp2k/cp2k-8.1/data
 CP2K| Input file name                                                 aiida.inp

 GLOBAL| Force Environment number                                              1
 GLOBAL| Basis set file name                                        BASIS_MOLOPT
 GLOBAL| Potential file name                                      GTH_POTENTIALS
 GLOBAL| MM Potential file name                                     MM_POTENTIAL
 GLOBAL| Coordinate file name                                      __STD_INPUT__
 GLOBAL| Method name                                                        CP2K
 GLOBAL| Project name                                                      aiida
 GLOBAL| Preferred FFT library                                             FFTW3
 GLOBAL| Preferred diagonalization lib.                                       SL
 GLOBAL| Run type                                                       CELL_OPT
 GLOBAL| All-to-all communication in single precision                          F
 GLOBAL| FFTs using library dependent lengths                                  F
 GLOBAL| Global print level                                                  LOW
 GLOBAL| MPI I/O enabled                                                       T
 GLOBAL| Total number of message passing processes                            12
 GLOBAL| Number of threads for this process                                    2
 GLOBAL| This output is from process                                           0
 GLOBAL| CPU model name                Intel(R) Xeon(R) CPU E5-2650 v4 @ 2.20GHz
 GLOBAL| CPUID                                                              1002
 GLOBAL| Compiled for CPUID                                                    0

 *** HINT in environment.F:802 :: The compiler target flags (generic) used ***
 *** to build this binary cannot exploit all extensions of this CPU model  ***
 *** (x86_avx2). Consider compiler target flags as part of FCFLAGS and     ***
 *** CFLAGS (ARCH file).                                                   ***


 MEMORY| system memory details [Kb]
 MEMORY|                        rank 0           min           max       average
 MEMORY| MemTotal            131594208     131594208     131594208     131594208
 MEMORY| MemFree               1124112       1124112       1124112       1124112
 MEMORY| Buffers                121696        121696        121696        121696
 MEMORY| Cached              117364712     117364712     117364712     117364712
 MEMORY| Slab                  4998924       4998924       4998924       4998924
 MEMORY| SReclaimable          2878668       2878668       2878668       2878668
 MEMORY| MemLikelyFree       121489188     121489188     121489188     121489188


 GENERATE|  Preliminary Number of Bonds generated:                             0
 GENERATE|  Achieved consistency in connectivity generation.

 *** WARNING in cryssym.F:169 :: Version of Symmetry Library SPGLIB not ***
 *** tested                                                             ***


 *******************************************************************************
 *******************************************************************************
 **                                                                           **
 **     #####                         ##              ##                      **
 **    ##   ##            ##          ##              ##                      **
 **   ##     ##                       ##            ######                    **
 **   ##     ##  ##   ##  ##   #####  ##  ##   ####   ##    #####    #####    **
 **   ##     ##  ##   ##  ##  ##      ## ##   ##      ##   ##   ##  ##   ##   **
 **   ##  ## ##  ##   ##  ##  ##      ####     ###    ##   ######   ######    **
 **    ##  ###   ##   ##  ##  ##      ## ##      ##   ##   ##       ##        **
 **     #######   #####   ##   #####  ##  ##  ####    ##    #####   ##        **
 **           ##                                                    ##        **
 **                                                                           **
 **                                                ... make the atoms dance   **
 **                                                                           **
 **            Copyright (C) by CP2K developers group (2000 - 2020)           **
 **                      J. Chem. Phys. 152, 194103 (2020)                    **
 **                                                                           **
 *******************************************************************************


 TOTAL NUMBERS AND MAXIMUM NUMBERS

  Total number of            - Atomic kinds:                                   2
                             - Atoms:                                          4
                             - Shell sets:                                     4
                             - Shells:                                        23
                             - Primitive Cartesian functions:                 23
                             - Cartesian basis functions:                     59
                             - Spherical basis functions:                     55

  Maximum angular momentum of- Orbital basis functions:                        2
                             - Local part of the GTH pseudopotential:          2
                             - Non-local part of the GTH pseudopotential:      4


 SCF PARAMETERS         Density guess:                                   RESTART
                        --------------------------------------------------------
                        max_scf:                                             150
                        max_scf_history:                                       0
                        max_diis:                                              4
                        --------------------------------------------------------
                        eps_scf:                                        1.00E-04
                        eps_scf_history:                                0.00E+00
                        eps_diis:                                       1.00E-01
                        eps_eigval:                                     1.00E-05
                        --------------------------------------------------------
                        level_shift [a.u.]:                                 0.00
                        --------------------------------------------------------
                        Mixing method:                            BROYDEN_MIXING
                                                charge density mixing in g-space
                        --------------------------------------------------------
                        No outer SCF

 KPOINTS| Number of kpoint groups                                              4
 KPOINTS| Size of each kpoint group                                            3
 KPOINTS| Number of kpoints per group                                          8

 CELL_OPT| Pressure tolerance [bar]:                                       100.0
 CELL_OPT| Keep angles between the cell vectors:                              NO
 CELL_OPT| Keep cell symmetry:                                                NO
 CELL_OPT| Constraint:                                                      NONE

 BFGS| Use rational function optimization for step estimation:                NO
 BFGS| Use model Hessian for initial guess:                                   NO
 BFGS| Restart Hessian:                                                       NO
 BFGS| Trust radius:                                                       0.472

 *******************************************************************************
 ***                     STARTING   CELL   OPTIMIZATION                      ***
 ***                                   BFGS                                  ***
 *******************************************************************************

 CELL| Volume [angstrom^3]:                                           204.400073
 CELL| Vector a [angstrom]:       6.612     0.000     0.000   |a| =     6.611987
 CELL| Vector b [angstrom]:       3.306     5.726     0.000   |b| =     6.611987
 CELL| Vector c [angstrom]:       3.306     1.909     5.399   |c| =     6.611987
 CELL| Angle (b,c), alpha [degree]:                                    60.000000
 CELL| Angle (a,c), beta  [degree]:                                    60.000000
 CELL| Angle (a,b), gamma [degree]:                                    60.000000
 CELL| Numerically orthorhombic:                                              NO

 Number of electrons:                                                         32
 Number of occupied orbitals:                                                 16
 Number of molecular orbitals:                                                16

 Number of orbital functions:                                                 55
 Number of independent orbital functions:                                     55

 Extrapolation method: initial_guess

 *** WARNING in qs_initial_guess.F:309 :: User requested to restart the    ***
 *** wavefunction from the file named: aiida-RESTART.kp. This file does    ***
 *** not exist. Please check the existence of the file or change properly  ***
 *** the value of the keyword WFN_RESTART_FILE_NAME. Calculation continues ***
 *** using ATOMIC GUESS.                                                   ***



 SCF WAVEFUNCTION OPTIMIZATION

  Step     Update method      Time    Convergence         Total energy    Change
  ------------------------------------------------------------------------------
     1 NoMix/Diag. 0.30E+00    0.4     0.68135129       -66.3434102828 -6.63E+01
     2 Broy./Diag. 0.30E+00    0.6     0.18078546       -66.2463836583  9.70E-02
     3 Broy./Diag. 0.30E+00    0.6     0.30638043       -66.1449952741  1.01E-01
     4 Broy./Diag. 0.30E+00    0.6     0.10849139       -66.0510482438  9.39E-02
     5 Broy./Diag. 0.30E+00    0.6     0.07447868       -65.9758593779  7.52E-02
     6 Broy./Diag. 0.30E+00    0.6     0.00826150       -65.9793456388 -3.49E-03
     7 Broy./Diag. 0.30E+00    0.6     0.00722867       -65.9867672000 -7.42E-03
     8 Broy./Diag. 0.30E+00    0.6     0.00043851       -65.9877706097 -1.00E-03
     9 Broy./Diag. 0.30E+00    0.6     0.00022106       -65.9872503106  5.20E-04
    10 Broy./Diag. 0.30E+00    0.7     0.00000706       -65.9870674366  1.83E-04

  *** SCF run converged in    10 steps ***


  Electronic density on regular grids:        -31.9999999948        0.0000000052
  Core density on regular grids:               31.9999994881       -0.0000005119
  Total charge density on r-space grids:       -0.0000005066
  Total charge density g-space grids:          -0.0000005066

  Overlap energy of the core charge distribution:               0.00000000000000
  Self energy of the core charge distribution:               -138.89582544120611
  Core Hamiltonian energy:                                     27.22305870187045
  Hartree energy:                                              56.70225203832015
  Exchange-correlation energy:                                -11.01655273555666

  Total energy:                                               -65.98706743657216

 ENERGY| Total FORCE_EVAL ( QS ) energy [a.u.]:              -65.987063970816621

 --------  Informations at step =     0 ------------
  Optimization Method        =                 BFGS
  Total Energy               =       -65.9870639708
  Internal Pressure [bar]    =      1407.4019225506
  Used time                  =                7.212
 ---------------------------------------------------

 --------------------------
 OPTIMIZATION STEP:      1
 --------------------------

 CELL| Volume [angstrom^3]:                                           204.433880
 CELL| Vector a [angstrom]:       6.612     0.000     0.000   |a| =     6.612271
 CELL| Vector b [angstrom]:       3.306     5.726     0.000   |b| =     6.612274
 CELL| Vector c [angstrom]:       3.306     1.909     5.399   |c| =     6.612274
 CELL| Angle (b,c), alpha [degree]:                                    60.001887
 CELL| Angle (a,c), beta  [degree]:                                    60.001414
 CELL| Angle (a,b), gamma [degree]:                                    60.001414
 CELL| Numerically orthorhombic:                                              NO

 Number of electrons:                                                         32
 Number of occupied orbitals:                                                 16
 Number of molecular orbitals:                                                16

 Number of orbital functions:                                                 55
 Number of independent orbital functions:                                     55

 Extrapolation method: initial_guess


 SCF WAVEFUNCTION OPTIMIZATION

  Step     Update method      Time    Convergence         Total energy    Change
  ------------------------------------------------------------------------------
     1 Broy./Diag. 0.30E+00    0.4     1.44230880       -66.3632068557 -6.64E+01
     2 Broy./Diag. 0.30E+00    0.6     0.83086821       -66.7898315086 -4.27E-01
     3 Broy./Diag. 0.30E+00    0.6     0.38596672       -66.3766136917  4.13E-01
     4 Broy./Diag. 0.30E+00    0.6     0.06050692       -65.9970463593  3.80E-01
     5 Broy./Diag. 0.30E+00    0.6     0.03858065       -65.9314556594  6.56E-02
     6 Broy./Diag. 0.30E+00    0.6     0.00891789       -65.9706561117 -3.92E-02
     7 Broy./Diag. 0.30E+00    0.6     0.00193525       -65.9860906210 -1.54E-02
     8 Broy./Diag. 0.30E+00    0.6     0.00065333       -65.9875823981 -1.49E-03
     9 Broy./Diag. 0.30E+00    0.6     0.00006695       -65.9873389358  2.43E-04

  *** SCF run converged in     9 steps ***


  Electronic density on regular grids:        -31.9999898783        0.0000101217
  Core density on regular grids:               31.9999994892       -0.0000005108
  Total charge density on r-space grids:        0.0000096109
  Total charge density g-space grids:           0.0000096109

  Overlap energy of the core charge distribution:               0.00000000000000
  Self energy of the core charge distribution:               -138.89582544120611
  Core Hamiltonian energy:                                     27.22275914857384
  Hartree energy:                                              56.70220021272291
  Exchange-correlation energy:                                -11.01647285585194

  Total energy:                                               -65.98733893576131

 ENERGY| Total FORCE_EVAL ( QS ) energy [a.u.]:              -65.987065055409545

 --------  Informations at step =     1 ------------
  Optimization Method        =                 BFGS
  Total Energy               =       -65.9870650554
  Internal Pressure [bar]    =      1391.5845079704
  Real energy change         =        -0.0000010846
  Predicted change in energy =        -0.0000005584
  Scaling factor             =         0.0000000000
  Step size                  =         0.0006611708
  Trust radius               =         0.4724315332
  Decrease in energy         =                  YES
  Used time                  =                6.371

  Convergence check :
  Max. step size             =         0.0006611708
  Conv. limit for step size  =         0.0100000000
  Convergence in step size   =                  YES
  RMS step size              =         0.0002490848
  Conv. limit for RMS step   =         0.0100000000
  Convergence in RMS step    =                  YES
  Max. gradient              =         0.0006529348
  Conv. limit for gradients  =         0.0100000000
  Conv. in gradients         =                  YES
  RMS gradient               =         0.0002461914
  Conv. limit for RMS grad.  =         0.0500000000
  Conv. in RMS gradients     =                  YES
  Pressure Deviation [bar]   =      1424.4377932922
  Pressure Tolerance [bar]   =       100.0000000000
  Conv. for  PRESSURE        =                   NO
 ---------------------------------------------------

 --------------------------
 OPTIMIZATION STEP:      2
 --------------------------

 CELL| Volume [angstrom^3]:                                           207.324245
 CELL| Vector a [angstrom]:       6.636     0.000     0.000   |a| =     6.636465
 CELL| Vector b [angstrom]:       3.306     5.755     0.000   |b| =     6.636723
 CELL| Vector c [angstrom]:       3.306     1.909     5.429   |c| =     6.636735
 CELL| Angle (b,c), alpha [degree]:                                    60.161276
 CELL| Angle (a,c), beta  [degree]:                                    60.121000
 CELL| Angle (a,b), gamma [degree]:                                    60.120943
 CELL| Numerically orthorhombic:                                              NO

 Number of electrons:                                                         32
 Number of occupied orbitals:                                                 16
 Number of molecular orbitals:                                                16

 Number of orbital functions:                                                 55
 Number of independent orbital functions:                                     55

 Extrapolation method: initial_guess


 SCF WAVEFUNCTION OPTIMIZATION

  Step     Update method      Time    Convergence         Total energy    Change
  ------------------------------------------------------------------------------
     1 Broy./Diag. 0.30E+00    0.4     0.10201058       -65.9858811726 -6.60E+01
     2 Broy./Diag. 0.30E+00    0.5     0.00698592       -66.0041969874 -1.83E-02
     3 Broy./Diag. 0.30E+00    0.5     0.00564123       -65.9944013862  9.80E-03
     4 Broy./Diag. 0.30E+00    0.5     0.00155579       -65.9875801801  6.82E-03
     5 Broy./Diag. 0.30E+00    0.6     0.00004083       -65.9862994950  1.28E-03

  *** SCF run converged in     5 steps ***


  Electronic density on regular grids:        -32.0000072885       -0.0000072885
  Core density on regular grids:               31.9999994860       -0.0000005140
  Total charge density on r-space grids:       -0.0000078025
  Total charge density g-space grids:          -0.0000078025

  Overlap energy of the core charge distribution:               0.00000000000000
  Self energy of the core charge distribution:               -138.89582544120611
  Core Hamiltonian energy:                                     27.20732164336355
  Hartree energy:                                              56.71114523067864
  Exchange-correlation energy:                                -11.00894092784010

  Total energy:                                               -65.98629949500403

 ENERGY| Total FORCE_EVAL ( QS ) energy [a.u.]:              -65.987107677556381

 --------  Informations at step =     2 ------------
  Optimization Method        =                 BFGS
  Total Energy               =       -65.9871076776
  Internal Pressure [bar]    =        75.4276712652
  Real energy change         =        -0.0000426221
  Predicted change in energy =        -0.0000469674
  Scaling factor             =         0.0000000000
  Step size                  =         0.0562183853
  Trust radius               =         0.4724315332
  Decrease in energy         =                  YES
  Used time                  =                3.980

  Convergence check :
  Max. step size             =         0.0562183853
  Conv. limit for step size  =         0.0100000000
  Convergence in step size   =                   NO
  RMS step size              =         0.0211973367
  Conv. limit for RMS step   =         0.0100000000
  Convergence in RMS step    =                   NO
  Max. gradient              =         0.0000640338
  Conv. limit for gradients  =         0.0100000000
  Conv. in gradients         =                  YES
  RMS gradient               =         0.0000351050
  Conv. limit for RMS grad.  =         0.0500000000
  Conv. in RMS gradients     =                  YES
  Pressure Deviation [bar]   =       108.2809565870
  Pressure Tolerance [bar]   =       100.0000000000
  Conv. for  PRESSURE        =                   NO
 ---------------------------------------------------

 --------------------------
 OPTIMIZATION STEP:      3
 --------------------------

 CELL| Volume [angstrom^3]:                                           207.387612
 CELL| Vector a [angstrom]:       6.637     0.000     0.000   |a| =     6.637022
 CELL| Vector b [angstrom]:       3.306     5.755     0.000   |b| =     6.637268
 CELL| Vector c [angstrom]:       3.306     1.909     5.429   |c| =     6.637280
 CELL| Angle (b,c), alpha [degree]:                                    60.164274
 CELL| Angle (a,c), beta  [degree]:                                    60.123312
 CELL| Angle (a,b), gamma [degree]:                                    60.123253
 CELL| Numerically orthorhombic:                                              NO

 Number of electrons:                                                         32
 Number of occupied orbitals:                                                 16
 Number of molecular orbitals:                                                16

 Number of orbital functions:                                                 55
 Number of independent orbital functions:                                     55

 Extrapolation method: initial_guess


 SCF WAVEFUNCTION OPTIMIZATION

  Step     Update method      Time    Convergence         Total energy    Change
  ------------------------------------------------------------------------------
     1 Broy./Diag. 0.30E+00    0.4     0.03947952       -65.9870798413 -6.60E+01
     2 Broy./Diag. 0.30E+00    0.5     0.00011064       -65.9876502784 -5.70E-04
     3 Broy./Diag. 0.30E+00    0.6     0.00009969       -65.9873298659  3.20E-04

  *** SCF run converged in     3 steps ***


  Electronic density on regular grids:        -32.0001894290       -0.0001894290
  Core density on regular grids:               31.9999994859       -0.0000005141
  Total charge density on r-space grids:       -0.0001899432
  Total charge density g-space grids:          -0.0001899432

  Overlap energy of the core charge distribution:               0.00000000000000
  Self energy of the core charge distribution:               -138.89582544120611
  Core Hamiltonian energy:                                     27.20662817602669
  Hartree energy:                                              56.71077733223675
  Exchange-correlation energy:                                -11.00890993294308

  Total energy:                                               -65.98732986588575

 ENERGY| Total FORCE_EVAL ( QS ) energy [a.u.]:              -65.987107703491745

 --------  Informations at step =     3 ------------
  Optimization Method        =                 BFGS
  Total Energy               =       -65.9871077035
  Internal Pressure [bar]    =        48.1942620237
  Real energy change         =        -0.0000000259
  Predicted change in energy =        -0.0000000328
  Scaling factor             =         0.0000000000
  Step size                  =         0.0011930843
  Trust radius               =         0.4724315332
  Decrease in energy         =                  YES
  Used time                  =                2.796

  Convergence check :
  Max. step size             =         0.0011930843
  Conv. limit for step size  =         0.0100000000
  Convergence in step size   =                  YES
  RMS step size              =         0.0004649649
  Conv. limit for RMS step   =         0.0100000000
  Convergence in RMS step    =                  YES
  Max. gradient              =         0.0000646208
  Conv. limit for gradients  =         0.0100000000
  Conv. in gradients         =                  YES
  RMS gradient               =         0.0000350935
  Conv. limit for RMS grad.  =         0.0500000000
  Conv. in RMS gradients     =                  YES
  Pressure Deviation [bar]   =        81.0475473455
  Pressure Tolerance [bar]   =       100.0000000000
  Conv. for  PRESSURE        =                  YES
 ---------------------------------------------------

 *******************************************************************************
 ***                    GEOMETRY OPTIMIZATION COMPLETED                      ***
 *******************************************************************************

                    Reevaluating energy at the minimum

 CELL| Volume [angstrom^3]:                                           207.387612
 CELL| Vector a [angstrom]:       6.637     0.000     0.000   |a| =     6.637022
 CELL| Vector b [angstrom]:       3.306     5.755     0.000   |b| =     6.637268
 CELL| Vector c [angstrom]:       3.306     1.909     5.429   |c| =     6.637280
 CELL| Angle (b,c), alpha [degree]:                                    60.164274
 CELL| Angle (a,c), beta  [degree]:                                    60.123312
 CELL| Angle (a,b), gamma [degree]:                                    60.123253
 CELL| Numerically orthorhombic:                                              NO

 Number of electrons:                                                         32
 Number of occupied orbitals:                                                 16
 Number of molecular orbitals:                                                16

 Number of orbital functions:                                                 55
 Number of independent orbital functions:                                     55

 Extrapolation method: initial_guess


 SCF WAVEFUNCTION OPTIMIZATION

  Step     Update method      Time    Convergence         Total energy    Change
  ------------------------------------------------------------------------------
     1 Broy./Diag. 0.30E+00    0.4     0.00004949       -65.9871077035 -6.60E+01

  *** SCF run converged in     1 steps ***


  Electronic density on regular grids:        -31.9999999997        0.0000000003
  Core density on regular grids:               31.9999994859       -0.0000005141
  Total charge density on r-space grids:       -0.0000005139
  Total charge density g-space grids:          -0.0000005139

  Overlap energy of the core charge distribution:               0.00000000000000
  Self energy of the core charge distribution:               -138.89582544120611
  Core Hamiltonian energy:                                     27.20671862965060
  Hartree energy:                                              56.71083880002563
  Exchange-correlation energy:                                -11.00883969196187

  Total energy:                                               -65.98710770349176

 ENERGY| Total FORCE_EVAL ( QS ) energy [a.u.]:              -65.987107703491759

 -------------------------------------------------------------------------------
 -                                                                             -
 -                                DBCSR STATISTICS                             -
 -                                                                             -
 -------------------------------------------------------------------------------
 COUNTER                                    TOTAL       BLAS       SMM       ACC
 flops inhomo. stacks                           0       0.0%      0.0%      0.0%
 flops total                         0.000000E+00       0.0%      0.0%      0.0%
 flops max/rank                      0.000000E+00       0.0%      0.0%      0.0%
 matmuls inhomo. stacks                         0       0.0%      0.0%      0.0%
 matmuls total                                  0       0.0%      0.0%      0.0%
 number of processed stacks                     0       0.0%      0.0%      0.0%
 average stack size                                     0.0       0.0       0.0
 marketing flops                     0.000000E+00
 -------------------------------------------------------------------------------
 -                                                                             -
 -                      DBCSR MESSAGE PASSING PERFORMANCE                      -
 -                                                                             -
 -------------------------------------------------------------------------------
 ROUTINE             CALLS      AVE VOLUME [Bytes]
 MP_Bcast                1                     12.
 MP_Allreduce        15188                      8.
 MP_Alltoall         95533                   1641.
 -------------------------------------------------------------------------------

 -------------------------------------------------------------------------------
 -                                                                             -
 -                                GRID STATISTICS                              -
 -                                                                             -
 -------------------------------------------------------------------------------
 LP    KERNEL             BACKEND                              COUNT     PERCENT
 4     collocate general  REF                                 170127      50.74%
 4     integrate general  REF                                 144570      43.12%
 7     integrate general  REF                                  20526       6.12%
 0     collocate general  REF                                     20       0.01%
 3     integrate general  REF                                     16       0.00%
 -------------------------------------------------------------------------------

 MEMORY| Estimated peak process memory [MiB]                                 183

 -------------------------------------------------------------------------------
 -                                                                             -
 -                         MESSAGE PASSING PERFORMANCE                         -
 -                                                                             -
 -------------------------------------------------------------------------------

 ROUTINE             CALLS      AVE VOLUME [Bytes]
 MP_Group               21
 MP_Bcast            41447                  11887.
 MP_Allreduce         7746                     70.
 MP_Sync                23
 MP_Alltoall           577                 797672.
 MP_ISendRecv         2959                  48954.
 MP_Wait             26895
 MP_comm_split           3
 MP_ISend            27264                    487.
 MP_IRecv            39936                    323.
 MP_Recv              5850                   4390.
 -------------------------------------------------------------------------------


 -------------------------------------------------------------------------------
 -                                                                             -
 -                           R E F E R E N C E S                               -
 -                                                                             -
 -------------------------------------------------------------------------------
 
 CP2K version 8.1, the CP2K developers group (2020).
 CP2K is freely available from https://www.cp2k.org/ .

 Kuehne,Thomas D.; Iannuzzi,Marcella; Del Ben,Mauro;
 Rybkin,Vladimir V.; Seewald,Patrick; Stein,Frederick; Laino,Teodoro;
 Khaliullin,Rustam Z.; Schuett,Ole; Schiffmann,Florian; Golze,Dorothea;
 Wilhelm,Jan; Chulkov,Sergey; Bani-Hashemian,Mohammad Hossein;
 Weber,Valery; Borstnik,Urban; Taillefumier,Mathieu;
 Jakobovits,Alice Shoshana; Lazzaro,Alfio; Pabst,Hans; Mueller,Tiziano;
 Schade,Robert; Guidon,Manuel; Andermatt,Samuel; Holmberg,Nico;
 Schenter,Gregory K.; Hehn,Anna; Bussy,Augustin; Belleflamme,Fabian;
 Tabacchi,Gloria; Gloess,Andreas; Lass,Michael; Bethune,Iain;
 Mundy,Christopher J.; Plessl,Christian; Watkins,Matt;
 VandeVondele,Joost; Krack,Matthias; Hutter,Juerg. 
 The Journal of Chemical Physics, 152 (19), (2020). 
 CP2K: An electronic structure and molecular dynamics software package -
 Quickstep: Efficient and accurate electronic structure calculations.
 https://doi.org/10.1063/5.0007045

 Togo, Atsushi; Tanaka, Isao. arXiv, 1808.01590 (2018). 
 Spglib : a software library for crystal symmetry search.
 https://doi.org/xxx

 Schuett, Ole; Messmer, Peter; Hutter, Juerg; VandeVondele, Joost. 
 Electronic Structure Calculations on Graphics Processing Units, John
 Wiley & Sons, Ltd, 173-190 (2016). 
 GPU-Accelerated Sparse Matrix-Matrix Multiplication for
 Linear Scaling Density Functional Theory.
 https://doi.org/10.1002/9781118670712.ch8

 Borstnik, U; VandeVondele, J; Weber, V; Hutter, J. 
 PARALLEL COMPUTING, 40 (5-6), 47-58 (2014). 
 Sparse matrix multiplication: The distributed block-compressed sparse
 row library.
 https://doi.org/10.1016/j.parco.2014.03.012

 Hutter, J; Iannuzzi, M; Schiffmann, F; VandeVondele, J. 
 WIREs Comput Mol Sci., 4 (1), 15-25 (2014). 
 CP2K: atomistic simulations of condensed matter systems.
 https://doi.org/10.1002/wcms.1159

 VandeVondele, J; Hutter, J. 
 JOURNAL OF CHEMICAL PHYSICS, 127 (11), 114105 (2007). 
 Gaussian basis sets for accurate calculations on molecular systems in
 gas and condensed phases.
 https://doi.org/10.1063/1.2770708

 Krack, M. 
 THEORETICAL CHEMISTRY ACCOUNTS, 114 (1-3), 145-152 (2005). 
 Pseudopotentials for H to Kr optimized for gradient-corrected
 exchange-correlation functionals.
 https://doi.org/10.1007/s00214-005-0655-y

 VandeVondele, J; Krack, M; Mohamed, F; Parrinello, M; Chassaing, T;
 Hutter, J. COMPUTER PHYSICS COMMUNICATIONS, 167 (2), 103-128 (2005). 
 QUICKSTEP: Fast and accurate density functional calculations using a
 mixed Gaussian and plane waves approach.
 https://doi.org/10.1016/j.cpc.2004.12.014

 Frigo, M; Johnson, SG. 
 PROCEEDINGS OF THE IEEE, 93 (2), 216-231 (2005). 
 The design and implementation of FFTW3.
 https://doi.org/10.1109/JPROC.2004.840301

 Hartwigsen, C; Goedecker, S; Hutter, J. 
 PHYSICAL REVIEW B, 58 (7), 3641-3662 (1998). 
 Relativistic separable dual-space Gaussian pseudopotentials from H to Rn.
 https://doi.org/10.1103/PhysRevB.58.3641

 Lippert, G; Hutter, J; Parrinello, M. 
 MOLECULAR PHYSICS, 92 (3), 477-487 (1997). 
 A hybrid Gaussian and plane wave density functional scheme.
 https://doi.org/10.1080/002689797170220

 Perdew, JP; Burke, K; Ernzerhof, M. 
 PHYSICAL REVIEW LETTERS, 77 (18), 3865-3868 (1996). 
 Generalized gradient approximation made simple.
 https://doi.org/10.1103/PhysRevLett.77.3865

 Goedecker, S; Teter, M; Hutter, J. 
 PHYSICAL REVIEW B, 54 (3), 1703-1710 (1996). 
 Separable dual-space Gaussian pseudopotentials.
 https://doi.org/10.1103/PhysRevB.54.1703


 -------------------------------------------------------------------------------
 -                                                                             -
 -                                T I M I N G                                  -
 -                                                                             -
 -------------------------------------------------------------------------------
 SUBROUTINE                       CALLS  ASD         SELF TIME        TOTAL TIME
                                MAXIMUM       AVERAGE  MAXIMUM  AVERAGE  MAXIMUM
 CP2K                                 1  1.0    0.005    0.009   22.344   22.345
 cp_cell_opt                          1  2.0    0.000    0.000   21.499   21.505
 geoopt_bfgs                          1  3.0    0.001    0.001   21.499   21.505
 cp_eval_at                           5  4.0    0.001    0.001   21.433   21.435
 qs_forces                            4  5.0    0.001    0.001   20.311   20.312
 qs_energies                          5  5.8    0.004    0.005   19.044   19.102
 scf_env_do_scf                       5  6.8    0.000    0.000   16.815   17.262
 scf_env_do_scf_inner_loop           28  8.0    0.006    0.011   16.814   17.261
 qs_scf_new_mos_kp                   28  9.0    0.000    0.000    7.677    9.667
 do_general_diag_kp                  28 10.0    0.017    0.018    7.676    9.667
 rebuild_ks_matrix                   32  9.6    0.000    0.000    3.481    7.575
 qs_ks_build_kohn_sham_matrix        32 10.6    0.012    0.013    3.481    7.575
 mp_alltoall_i22                  16029 12.6    4.372    6.907    4.372    6.907
 dbcsr_desymmetrize_deep           8335 11.4    0.112    0.123    4.575    6.882
 sum_up_and_integrate                32 11.6    0.002    0.002    2.699    6.798
 integrate_v_rspace                  32 12.6    0.004    0.010    2.697    6.797
 grid_integrate_task_list            32 13.6    2.552    6.642    2.552    6.642
 rs_pw_transfer                     269 13.1    0.002    0.002    4.017    6.319
 mp_waitall_1                     26895 12.7    3.946    6.243    3.946    6.243
 rs_pw_transfer_RS2PW_100            38 12.7    0.021    0.022    3.919    6.221
 qs_rho_update_rho                   33  8.9    0.000    0.000    6.150    6.163
 calculate_rho_elec                  33  9.9    0.007    0.014    6.150    6.163
 density_rs2pw                       33 10.9    0.001    0.001    3.883    6.063
 qs_ks_update_qs_env                 28  9.0    0.000    0.000    2.871    6.056
 grid_collocate_task_list            33 10.9    2.252    5.936    2.252    5.936
 copy_dbcsr_to_fm                  4751 10.7    0.047    0.049    1.859    1.917
 dbcsr_complete_redistribute       7694 11.9    0.225    0.240    1.696    1.848
 qs_ks_update_qs_env_forces           4  6.0    0.000    0.000    0.706    1.618
 mp_sum_dm                          243  6.4    0.957    1.522    0.957    1.522
 write_kpoints_restart               28  9.0    0.047    0.522    0.741    1.188
 init_scf_run                         5  6.8    0.000    0.000    1.112    1.131
 scf_env_initial_rho_setup            5  7.8    0.000    0.000    1.112    1.131
 cp_cfm_geeig                       224 11.0    0.002    0.003    0.953    0.961
 kpoint_density_transform            32 10.6    0.010    0.011    0.895    0.904
 copy_fm_to_dbcsr                  2943 11.3    0.010    0.011    0.706    0.842
 cp_cfm_heevd                       224 12.0    0.833    0.839    0.833    0.839
 rskp_transform                    1792 11.0    0.235    0.738    0.235    0.738
 pw_transfer                        641 13.2    0.014    0.014    0.641    0.735
 fft_wrap_pw1pw2                    577 14.2    0.003    0.003    0.623    0.719
 get_fft_scratch                    578 17.2    0.710    0.711    0.710    0.711
 fft3d_s                              1  2.0    0.000    0.000    0.709    0.710
 fft3d_ps                           577 16.2    0.213    0.252    0.521    0.661
 fft_wrap_pw1pw2_100                382 15.2    0.025    0.029    0.569    0.655
 mp_sum_d                         15814 12.3    0.412    0.647    0.412    0.647
 qs_vxc_create                       32 11.6    0.000    0.000    0.635    0.642
 xc_vxc_pw_create                    32 12.6    0.025    0.026    0.635    0.642
 build_core_hamiltonian_matrix_       4  6.0    0.002    0.003    0.345    0.634
 qs_energies_compute_matrix_w         5  6.8    0.000    0.000    0.518    0.553
 calculate_ecore_overlap              9  7.0    0.000    0.000    0.313    0.525
 qs_energies_init_hamiltonians        5  6.8    0.000    0.000    0.496    0.498
 mp_alltoall_z22v                   577 18.2    0.236    0.464    0.236    0.464
 -------------------------------------------------------------------------------

 The number of warnings for this run is : 2
 
 -------------------------------------------------------------------------------
  **** **** ******  **  PROGRAM ENDED AT                 2022-01-03 14:37:01.030
 ***** ** ***  *** **   PROGRAM RAN ON                                   mpcl037
 **    ****   ******    PROGRAM RAN BY                                  pubo1141
 ***** **    ** ** **   PROGRAM PROCESS ID                                 25357
  **** **  *******  **  PROGRAM STOPPED IN /user/pubo1141/simulations/aiida_test
                                           s/cp2k_8.1/cell_opt_low
