 DBCSR| CPU Multiplication driver                                           XSMM
 DBCSR| Multrec recursion limit                                              512
 DBCSR| Multiplication stack size                                           1000
 DBCSR| Maximum elements for images                                    UNLIMITED
 DBCSR| Multiplicative factor virtual images                                   1
 DBCSR| Use multiplication densification                                       T
 DBCSR| Multiplication size stacks                                             3
 DBCSR| Use memory pool for CPU allocation                                     F
 DBCSR| Number of 3D layers                                               SINGLE
 DBCSR| Use MPI memory allocation                                              F
 DBCSR| Use RMA algorithm                                                      F
 DBCSR| Use Communication thread                                               T
 DBCSR| Communication thread load                                             83
 DBCSR| MPI: My node id                                                        0
 DBCSR| MPI: Number of nodes                                                  36
 DBCSR| OMP: Current number of threads                                         2
 DBCSR| OMP: Max number of threads                                             2
 DBCSR| Split modifier for TAS multiplication algorithm                  1.0E+00


  **** **** ******  **  PROGRAM STARTED AT               2021-05-24 13:31:55.797
 ***** ** ***  *** **   PROGRAM STARTED ON                               mpcl027
 **    ****   ******    PROGRAM STARTED BY                              pubo1141
 ***** **    ** ** **   PROGRAM PROCESS ID                                 30858
  **** **  *******  **  PROGRAM STARTED IN /user/pubo1141/simulations/aiida_test
                                           s/cp2k_8.1/cell_opt_interrupted_mediu
                                           m

 CP2K| version string:                                          CP2K version 8.1
 CP2K| source code revision number:                                  git:0b61f2f
 CP2K| cp2kflags: omp fftw3 libxc parallel mpi3 scalapack xsmm spglib mkl libvor
 CP2K|            i libbqb
 CP2K| is freely available from                            https://www.cp2k.org/
 CP2K| Program compiled at                         Sun May 23 21:49:02 CEST 2021
 CP2K| Program compiled on                                               hpcl002
 CP2K| Program compiled for                                        carl-mkl-impi
 CP2K| Data directory path            /user/pubo1141/software/cp2k/cp2k-8.1/data
 CP2K| Input file name                                                 aiida.inp
 
 GLOBAL| Force Environment number                                              1
 GLOBAL| Basis set file name                                        BASIS_MOLOPT
 GLOBAL| Potential file name                                      GTH_POTENTIALS
 GLOBAL| MM Potential file name                                     MM_POTENTIAL
 GLOBAL| Coordinate file name                                      __STD_INPUT__
 GLOBAL| Method name                                                        CP2K
 GLOBAL| Project name                                                      aiida
 GLOBAL| Preferred FFT library                                             FFTW3
 GLOBAL| Preferred diagonalization lib.                                       SL
 GLOBAL| Run type                                                       CELL_OPT
 GLOBAL| All-to-all communication in single precision                          F
 GLOBAL| FFTs using library dependent lengths                                  F
 GLOBAL| Global print level                                                  LOW
 GLOBAL| MPI I/O enabled                                                       T
 GLOBAL| Total number of message passing processes                            36
 GLOBAL| Number of threads for this process                                    2
 GLOBAL| This output is from process                                           0
 GLOBAL| CPU model name                Intel(R) Xeon(R) CPU E5-2650 v4 @ 2.20GHz
 GLOBAL| CPUID                                                              1002

 MEMORY| system memory details [Kb]
 MEMORY|                        rank 0           min           max       average
 MEMORY| MemTotal            131594208     131594208     131594208     131594208
 MEMORY| MemFree             115828976     101639068     115828976     111024169
 MEMORY| Buffers                  1912          1912        217540         88440
 MEMORY| Cached                6276200       6275596      21297296      11813967
 MEMORY| Slab                  1550232        738748       1550232       1095684
 MEMORY| SReclaimable           781316        318088        781316        561141
 MEMORY| MemLikelyFree       122888404     122887800     123837380     123487718

 
 GENERATE|  Preliminary Number of Bonds generated:                             0
 GENERATE|  Achieved consistency in connectivity generation.

 *** WARNING in cryssym.F:169 :: Version of Symmetry Library SPGLIB not ***
 *** tested                                                             ***


 *******************************************************************************
 *******************************************************************************
 **                                                                           **
 **     #####                         ##              ##                      **
 **    ##   ##            ##          ##              ##                      **
 **   ##     ##                       ##            ######                    **
 **   ##     ##  ##   ##  ##   #####  ##  ##   ####   ##    #####    #####    **
 **   ##     ##  ##   ##  ##  ##      ## ##   ##      ##   ##   ##  ##   ##   **
 **   ##  ## ##  ##   ##  ##  ##      ####     ###    ##   ######   ######    **
 **    ##  ###   ##   ##  ##  ##      ## ##      ##   ##   ##       ##        **
 **     #######   #####   ##   #####  ##  ##  ####    ##    #####   ##        **
 **           ##                                                    ##        **
 **                                                                           **
 **                                                ... make the atoms dance   **
 **                                                                           **
 **            Copyright (C) by CP2K developers group (2000 - 2020)           **
 **                      J. Chem. Phys. 152, 194103 (2020)                    **
 **                                                                           **
 *******************************************************************************


 TOTAL NUMBERS AND MAXIMUM NUMBERS

  Total number of            - Atomic kinds:                                   2
                             - Atoms:                                          4
                             - Shell sets:                                     4
                             - Shells:                                        31
                             - Primitive Cartesian functions:                 23
                             - Cartesian basis functions:                     75
                             - Spherical basis functions:                     71

  Maximum angular momentum of- Orbital basis functions:                        2
                             - Local part of the GTH pseudopotential:          2
                             - Non-local part of the GTH pseudopotential:      4


 SCF PARAMETERS         Density guess:                                   RESTART
                        --------------------------------------------------------
                        max_scf:                                             150
                        max_scf_history:                                       0
                        max_diis:                                              4
                        --------------------------------------------------------
                        eps_scf:                                        1.00E-06
                        eps_scf_history:                                0.00E+00
                        eps_diis:                                       1.00E-01
                        eps_eigval:                                     1.00E-05
                        --------------------------------------------------------
                        level_shift [a.u.]:                                 0.00
                        --------------------------------------------------------
                        Mixing method:                            BROYDEN_MIXING
                                                charge density mixing in g-space
                        --------------------------------------------------------
                        No outer SCF
 
 KPOINTS| Number of kpoint groups                                              4
 KPOINTS| Size of each kpoint group                                            9
 KPOINTS| Number of kpoints per group                                         64

 CELL_OPT| Pressure tolerance [bar]:                                       100.0
 CELL_OPT| Keep angles between the cell vectors:                              NO
 CELL_OPT| Keep cell symmetry:                                                NO
 CELL_OPT| Constraint:                                                      NONE

 BFGS| Use rational function optimization for step estimation:                NO
 BFGS| Use model Hessian for initial guess:                                   NO
 BFGS| Restart Hessian:                                                       NO
 BFGS| Trust radius:                                                       0.472

 *******************************************************************************
 ***                     STARTING   CELL   OPTIMIZATION                      ***
 ***                                   BFGS                                  ***
 *******************************************************************************

 CELL| Volume [angstrom^3]:                                           204.400073
 CELL| Vector a [angstrom]:       6.612     0.000     0.000   |a| =     6.611987
 CELL| Vector b [angstrom]:       3.306     5.726     0.000   |b| =     6.611987
 CELL| Vector c [angstrom]:       3.306     1.909     5.399   |c| =     6.611987
 CELL| Angle (b,c), alpha [degree]:                                    60.000000
 CELL| Angle (a,c), beta  [degree]:                                    60.000000
 CELL| Angle (a,b), gamma [degree]:                                    60.000000
 CELL| Numerically orthorhombic:                                              NO

 Number of electrons:                                                         32
 Number of occupied orbitals:                                                 16
 Number of molecular orbitals:                                                16

 Number of orbital functions:                                                 71
 Number of independent orbital functions:                                     71

 Extrapolation method: initial_guess

 *** WARNING in qs_initial_guess.F:309 :: User requested to restart the    ***
 *** wavefunction from the file named: aiida-RESTART.kp. This file does    ***
 *** not exist. Please check the existence of the file or change properly  ***
 *** the value of the keyword WFN_RESTART_FILE_NAME. Calculation continues ***
 *** using ATOMIC GUESS.                                                   ***



 SCF WAVEFUNCTION OPTIMIZATION

  Step     Update method      Time    Convergence         Total energy    Change
  ------------------------------------------------------------------------------
     1 NoMix/Diag. 0.30E+00    2.4     1.03014243       -66.2882955973 -6.63E+01
     2 Broy./Diag. 0.30E+00    2.8     0.22312023       -66.2498445668  3.85E-02
     3 Broy./Diag. 0.30E+00    2.9     0.18321028       -66.1515377976  9.83E-02
     4 Broy./Diag. 0.30E+00    2.8     0.10663100       -66.0581678487  9.34E-02
     5 Broy./Diag. 0.30E+00    2.8     0.02666042       -65.9830093279  7.52E-02
     6 Broy./Diag. 0.30E+00    2.7     0.01144067       -65.9873044398 -4.30E-03
     7 Broy./Diag. 0.30E+00    2.8     0.00797073       -65.9968961116 -9.59E-03
     8 Broy./Diag. 0.30E+00    2.7     0.00064089       -65.9982180934 -1.32E-03
     9 Broy./Diag. 0.30E+00    2.7     0.00034240       -65.9974963194  7.22E-04
    10 Broy./Diag. 0.30E+00    2.7     0.00002481       -65.9971452018  3.51E-04
    11 Broy./Diag. 0.30E+00    2.7     0.00001336       -65.9971114008  3.38E-05
    12 Broy./Diag. 0.30E+00    2.7     0.00001029       -65.9971069196  4.48E-06
    13 Broy./Diag. 0.30E+00    2.7     0.00000061       -65.9971089273 -2.01E-06

  *** SCF run converged in    13 steps ***


  Electronic density on regular grids:        -32.0000000000       -0.0000000000
  Core density on regular grids:               31.9999999999       -0.0000000001
  Total charge density on r-space grids:       -0.0000000001
  Total charge density g-space grids:          -0.0000000001

  Overlap energy of the core charge distribution:               0.00000000000000
  Self energy of the core charge distribution:               -138.89582544120611
  Core Hamiltonian energy:                                     27.13906367388107
  Hartree energy:                                              56.77637414034734
  Exchange-correlation energy:                                -11.01672130030834

  Total energy:                                               -65.99710892728605

 ENERGY| Total FORCE_EVAL ( QS ) energy [a.u.]:              -65.997108423311374

 --------  Informations at step =     0 ------------
  Optimization Method        =                 BFGS
  Total Energy               =       -65.9971084233
  Internal Pressure [bar]    =      1632.6535318759
  Used time                  =               38.930
 ---------------------------------------------------

 --------------------------
 OPTIMIZATION STEP:      1
 --------------------------

 CELL| Volume [angstrom^3]:                                           204.448405
 CELL| Vector a [angstrom]:       6.612     0.000     0.000   |a| =     6.611925
 CELL| Vector b [angstrom]:       3.306     5.727     0.000   |b| =     6.612515
 CELL| Vector c [angstrom]:       3.306     1.908     5.399   |c| =     6.612515
 CELL| Angle (b,c), alpha [degree]:                                    60.006154
 CELL| Angle (a,c), beta  [degree]:                                    60.002639
 CELL| Angle (a,b), gamma [degree]:                                    60.002639
 CELL| Numerically orthorhombic:                                              NO

 Number of electrons:                                                         32
 Number of occupied orbitals:                                                 16
 Number of molecular orbitals:                                                16

 Number of orbital functions:                                                 71
 Number of independent orbital functions:                                     71

 Extrapolation method: initial_guess


 SCF WAVEFUNCTION OPTIMIZATION

  Step     Update method      Time    Convergence         Total energy    Change
  ------------------------------------------------------------------------------
     1 Broy./Diag. 0.30E+00    2.3     0.00112405       -65.9969750648 -6.60E+01
     2 Broy./Diag. 0.30E+00    2.7     0.00007063       -65.9973640269 -3.89E-04
     3 Broy./Diag. 0.30E+00    2.7     0.00006309       -65.9972438762  1.20E-04
     4 Broy./Diag. 0.30E+00    2.7     0.00002383       -65.9971775132  6.64E-05
     5 Broy./Diag. 0.30E+00    2.7     0.00000407       -65.9971695964  7.92E-06
     6 Broy./Diag. 0.30E+00    2.7     0.00000336       -65.9971748948 -5.30E-06
     7 Broy./Diag. 0.30E+00    2.7     0.00000122       -65.9971782520 -3.36E-06
     8 Broy./Diag. 0.30E+00    2.8     0.00000016       -65.9971789983 -7.46E-07

  *** SCF run converged in     8 steps ***


  Electronic density on regular grids:        -31.9999999640        0.0000000360
  Core density on regular grids:               31.9999999999       -0.0000000001
  Total charge density on r-space grids:        0.0000000359
  Total charge density g-space grids:           0.0000000359

  Overlap energy of the core charge distribution:               0.00000000000000
  Self energy of the core charge distribution:               -138.89582544120611
  Core Hamiltonian energy:                                     27.13864180268592
  Hartree energy:                                              56.77653152537616
  Exchange-correlation energy:                                -11.01652688518651

  Total energy:                                               -65.99717899833054

 ENERGY| Total FORCE_EVAL ( QS ) energy [a.u.]:              -65.997178367248310

 --------  Informations at step =     1 ------------
  Optimization Method        =                 BFGS
  Total Energy               =       -65.9971783672
  Internal Pressure [bar]    =      1579.0104901194
  Real energy change         =        -0.0000699439
  Predicted change in energy =        -0.0000353205
  Scaling factor             =         0.0000000000
  Step size                  =         0.0054370892
  Trust radius               =         0.4724315332
  Decrease in energy         =                  YES
  Used time                  =               24.614

  Convergence check :
  Max. step size             =         0.0054370892
  Conv. limit for step size  =         0.0030000000
  Convergence in step size   =                   NO
  RMS step size              =         0.0019810350
  Conv. limit for RMS step   =         0.0015000000
  Convergence in RMS step    =                   NO
  Max. gradient              =         0.0053297752
  Conv. limit for gradients  =         0.0000190000
  Conv. for gradients        =                   NO
  RMS gradient               =         0.0019436525
  Conv. limit for RMS grad.  =         0.0003000000
  Conv. for gradients        =                   NO
  Pressure Deviation [bar]   =      1611.8637754412
  Pressure Tolerance [bar]   =       100.0000000000
  Conv. for  PRESSURE        =                   NO
 ---------------------------------------------------

 --------------------------
 OPTIMIZATION STEP:      2
 --------------------------

 CELL| Volume [angstrom^3]:                                           206.938255
 CELL| Vector a [angstrom]:       6.609     0.000     0.000   |a| =     6.608572
 CELL| Vector b [angstrom]:       3.306     5.758     0.000   |b| =     6.639668
 CELL| Vector c [angstrom]:       3.306     1.893     5.438   |c| =     6.639726
 CELL| Angle (b,c), alpha [degree]:                                    60.321554
 CELL| Angle (a,c), beta  [degree]:                                    60.138179
 CELL| Angle (a,b), gamma [degree]:                                    60.137893
 CELL| Numerically orthorhombic:                                              NO

 Number of electrons:                                                         32
 Number of occupied orbitals:                                                 16
 Number of molecular orbitals:                                                16

 Number of orbital functions:                                                 71
 Number of independent orbital functions:                                     71

 Extrapolation method: initial_guess


 SCF WAVEFUNCTION OPTIMIZATION

  Step     Update method      Time    Convergence         Total energy    Change
  ------------------------------------------------------------------------------
     1 Broy./Diag. 0.30E+00    2.2     0.05881907       -65.9913038066 -6.60E+01
     2 Broy./Diag. 0.30E+00    2.7     0.00329610       -66.0069204174 -1.56E-02
     3 Broy./Diag. 0.30E+00    2.8     0.00300638       -66.0017678789  5.15E-03
     4 Broy./Diag. 0.30E+00    2.7     0.00104784       -65.9989886070  2.78E-03
     5 Broy./Diag. 0.30E+00    2.7     0.00020831       -65.9987050802  2.84E-04
     6 Broy./Diag. 0.30E+00    2.8     0.00014022       -65.9989224113 -2.17E-04
     7 Broy./Diag. 0.30E+00    2.7     0.00006501       -65.9990561917 -1.34E-04
     8 Broy./Diag. 0.30E+00    2.7     0.00000776       -65.9990840374 -2.78E-05
     9 Broy./Diag. 0.30E+00    2.7     0.00001180       -65.9990618334  2.22E-05
    10 Broy./Diag. 0.30E+00    2.7     0.00000086       -65.9990535295  8.30E-06

  *** SCF run converged in    10 steps ***


  Electronic density on regular grids:        -32.0000002191       -0.0000002191
  Core density on regular grids:               31.9999999999       -0.0000000001
  Total charge density on r-space grids:       -0.0000002191
  Total charge density g-space grids:          -0.0000002191

  Overlap energy of the core charge distribution:               0.00000000000000
  Self energy of the core charge distribution:               -138.89582544120611
  Core Hamiltonian energy:                                     27.12150079993772
  Hartree energy:                                              56.78335187008258
  Exchange-correlation energy:                                -11.00808075832705

  Total energy:                                               -65.99905352951288

 ENERGY| Total FORCE_EVAL ( QS ) energy [a.u.]:              -65.999056923868935

 --------  Informations at step =     2 ------------
  Optimization Method        =                 BFGS
  Total Energy               =       -65.9990569239
  Internal Pressure [bar]    =      -518.0283321590
  Real energy change         =        -0.0018785566
  Predicted change in energy =        -0.0018027089
  Scaling factor             =         0.0000000000
  Step size                  =         0.2825889301
  Trust radius               =         0.4724315332
  Decrease in energy         =                  YES
  Used time                  =               30.163

  Convergence check :
  Max. step size             =         0.2825889301
  Conv. limit for step size  =         0.0030000000
  Convergence in step size   =                   NO
  RMS step size              =         0.1030539086
  Conv. limit for RMS step   =         0.0015000000
  Convergence in RMS step    =                   NO
  Max. gradient              =         0.0011039558
  Conv. limit for gradients  =         0.0000190000
  Conv. for gradients        =                   NO
  RMS gradient               =         0.0004319831
  Conv. limit for RMS grad.  =         0.0003000000
  Conv. for gradients        =                   NO
  Pressure Deviation [bar]   =      -485.1750468373
  Pressure Tolerance [bar]   =       100.0000000000
  Conv. for  PRESSURE        =                   NO
 ---------------------------------------------------

 --------------------------
 OPTIMIZATION STEP:      3
 --------------------------

 CELL| Volume [angstrom^3]:                                           207.077312
 CELL| Vector a [angstrom]:       6.608     0.000     0.000   |a| =     6.608422
 CELL| Vector b [angstrom]:       3.306     5.760     0.000   |b| =     6.641164
 CELL| Vector c [angstrom]:       3.306     1.892     5.440   |c| =     6.641229
 CELL| Angle (b,c), alpha [degree]:                                    60.339032
 CELL| Angle (a,c), beta  [degree]:                                    60.145682
 CELL| Angle (a,b), gamma [degree]:                                    60.145362
 CELL| Numerically orthorhombic:                                              NO

 Number of electrons:                                                         32
 Number of occupied orbitals:                                                 16
 Number of molecular orbitals:                                                16

 Number of orbital functions:                                                 71
 Number of independent orbital functions:                                     71

 Extrapolation method: initial_guess


 SCF WAVEFUNCTION OPTIMIZATION

  Step     Update method      Time    Convergence         Total energy    Change
  ------------------------------------------------------------------------------
     1 Broy./Diag. 0.30E+00    2.2     0.00367057       -65.9987157575 -6.60E+01
     2 Broy./Diag. 0.30E+00    2.7     0.00020894       -65.9993842155 -6.68E-04
     3 Broy./Diag. 0.30E+00    2.8     0.00018299       -65.9991694455  2.15E-04
     4 Broy./Diag. 0.30E+00    2.7     0.00005366       -65.9990601597  1.09E-04
     5 Broy./Diag. 0.30E+00    2.7     0.00001276       -65.9990531248  7.03E-06
     6 Broy./Diag. 0.30E+00    2.7     0.00000874       -65.9990619196 -8.79E-06
     7 Broy./Diag. 0.30E+00    2.7     0.00000395       -65.9990671455 -5.23E-06
     8 Broy./Diag. 0.30E+00    2.7     0.00000054       -65.9990682292 -1.08E-06

  *** SCF run converged in     8 steps ***


  Electronic density on regular grids:        -31.9999999591        0.0000000409
  Core density on regular grids:               31.9999999999       -0.0000000001
  Total charge density on r-space grids:        0.0000000409
  Total charge density g-space grids:           0.0000000409

  Overlap energy of the core charge distribution:               0.00000000000000
  Self energy of the core charge distribution:               -138.89582544120611
  Core Hamiltonian energy:                                     27.12074957378128
  Hartree energy:                                              56.78368866976977
  Exchange-correlation energy:                                -11.00768103159222

  Total energy:                                               -65.99906822924729

 ENERGY| Total FORCE_EVAL ( QS ) energy [a.u.]:              -65.999067207139518

 --------  Informations at step =     3 ------------
  Optimization Method        =                 BFGS
  Total Energy               =       -65.9990672071
  Internal Pressure [bar]    =      -603.9518420389
  Real energy change         =        -0.0000102833
  Predicted change in energy =        -0.0000082835
  Scaling factor             =         0.0000000000
  Step size                  =         0.0174987695
  Trust radius               =         0.4724315332
  Decrease in energy         =                  YES
  Used time                  =               24.865

  Convergence check :
  Max. step size             =         0.0174987695
  Conv. limit for step size  =         0.0030000000
  Convergence in step size   =                   NO
  RMS step size              =         0.0065034259
  Conv. limit for RMS step   =         0.0015000000
  Convergence in RMS step    =                   NO
  Max. gradient              =         0.0011568838
  Conv. limit for gradients  =         0.0000190000
  Conv. for gradients        =                   NO
  RMS gradient               =         0.0004375419
  Conv. limit for RMS grad.  =         0.0003000000
  Conv. for gradients        =                   NO
  Pressure Deviation [bar]   =      -571.0985567171
  Pressure Tolerance [bar]   =       100.0000000000
  Conv. for  PRESSURE        =                   NO
 ---------------------------------------------------

 --------------------------
 OPTIMIZATION STEP:      4
 --------------------------

 CELL| Volume [angstrom^3]:                                           207.102582
 CELL| Vector a [angstrom]:       6.608     0.000     0.000   |a| =     6.608461
 CELL| Vector b [angstrom]:       3.306     5.760     0.000   |b| =     6.641408
 CELL| Vector c [angstrom]:       3.306     1.892     5.441   |c| =     6.641474
 CELL| Angle (b,c), alpha [degree]:                                    60.342137
 CELL| Angle (a,c), beta  [degree]:                                    60.146980
 CELL| Angle (a,b), gamma [degree]:                                    60.146652
 CELL| Numerically orthorhombic:                                              NO

 Number of electrons:                                                         32
 Number of occupied orbitals:                                                 16
 Number of molecular orbitals:                                                16

 Number of orbital functions:                                                 71
 Number of independent orbital functions:                                     71

 Extrapolation method: initial_guess


 SCF WAVEFUNCTION OPTIMIZATION

  Step     Update method      Time    Convergence         Total energy    Change
  ------------------------------------------------------------------------------
     1 Broy./Diag. 0.30E+00    2.2     0.00116208       -65.9989942030 -6.60E+01
     2 Broy./Diag. 0.30E+00    2.7     0.00005775       -65.9991890845 -1.95E-04
     3 Broy./Diag. 0.30E+00    2.7     0.00007842       -65.9991065765  8.25E-05
     4 Broy./Diag. 0.30E+00    2.7     0.00001612       -65.9990686262  3.80E-05
     5 Broy./Diag. 0.30E+00    2.8     0.00000739       -65.9990681571  4.69E-07
     6 Broy./Diag. 0.30E+00    2.7     0.00000441       -65.9990706081 -2.45E-06
     7 Broy./Diag. 0.30E+00    2.8     0.00000124       -65.9990721596 -1.55E-06
     8 Broy./Diag. 0.30E+00    2.7     0.00000021       -65.9990725349 -3.75E-07

  *** SCF run converged in     8 steps ***


  Electronic density on regular grids:        -31.9999999822        0.0000000178
  Core density on regular grids:               31.9999999999       -0.0000000001
  Total charge density on r-space grids:        0.0000000177
  Total charge density g-space grids:           0.0000000177

  Overlap energy of the core charge distribution:               0.00000000000000
  Self energy of the core charge distribution:               -138.89582544120611
  Core Hamiltonian energy:                                     27.12055145813672
  Hartree energy:                                              56.78378443305809
  Exchange-correlation energy:                                -11.00758298488428

  Total energy:                                               -65.99907253489559

 ENERGY| Total FORCE_EVAL ( QS ) energy [a.u.]:              -65.999072223157924

 --------  Informations at step =     4 ------------
  Optimization Method        =                 BFGS
  Total Energy               =       -65.9990722232
  Internal Pressure [bar]    =      -626.7992693410
  Real energy change         =        -0.0000050160
  Predicted change in energy =        -0.0000028237
  Scaling factor             =         0.0000000000
  Step size                  =         0.0055028804
  Trust radius               =         0.4724315332
  Decrease in energy         =                  YES
  Used time                  =               24.739

  Convergence check :
  Max. step size             =         0.0055028804
  Conv. limit for step size  =         0.0030000000
  Convergence in step size   =                   NO
  RMS step size              =         0.0022856311
  Conv. limit for RMS step   =         0.0015000000
  Convergence in RMS step    =                   NO
  Max. gradient              =         0.0011594280
  Conv. limit for gradients  =         0.0000190000
  Conv. for gradients        =                   NO
  RMS gradient               =         0.0004406670
  Conv. limit for RMS grad.  =         0.0003000000
  Conv. for gradients        =                   NO
  Pressure Deviation [bar]   =      -593.9459840192
  Pressure Tolerance [bar]   =       100.0000000000
  Conv. for  PRESSURE        =                   NO
 ---------------------------------------------------

 --------------------------
 OPTIMIZATION STEP:      5
 --------------------------

 CELL| Volume [angstrom^3]:                                           207.100950
 CELL| Vector a [angstrom]:       6.609     0.000     0.000   |a| =     6.608948
 CELL| Vector b [angstrom]:       3.306     5.760     0.000   |b| =     6.641182
 CELL| Vector c [angstrom]:       3.306     1.892     5.440   |c| =     6.641251
 CELL| Angle (b,c), alpha [degree]:                                    60.341415
 CELL| Angle (a,c), beta  [degree]:                                    60.146410
 CELL| Angle (a,b), gamma [degree]:                                    60.146066
 CELL| Numerically orthorhombic:                                              NO

 Number of electrons:                                                         32
 Number of occupied orbitals:                                                 16
 Number of molecular orbitals:                                                16

 Number of orbital functions:                                                 71
 Number of independent orbital functions:                                     71

 Extrapolation method: initial_guess


 SCF WAVEFUNCTION OPTIMIZATION

  Step     Update method      Time    Convergence         Total energy    Change
  ------------------------------------------------------------------------------
     1 Broy./Diag. 0.30E+00    2.2     0.00372031       -65.9990072216 -6.60E+01
     2 Broy./Diag. 0.30E+00    2.7     0.00033161       -65.9995274656 -5.20E-04
     3 Broy./Diag. 0.30E+00    2.7     0.00047953       -65.9992153729  3.12E-04
     4 Broy./Diag. 0.30E+00    2.7     0.00011283       -65.9990877820  1.28E-04
     5 Broy./Diag. 0.30E+00    2.7     0.00003008       -65.9990862571  1.52E-06
     6 Broy./Diag. 0.30E+00    2.7     0.00001075       -65.9990922553 -6.00E-06
     7 Broy./Diag. 0.30E+00    2.8     0.00000398       -65.9990965523 -4.30E-06
     8 Broy./Diag. 0.30E+00    2.7     0.00000084       -65.9990977209 -1.17E-06

  *** SCF run converged in     8 steps ***


  Electronic density on regular grids:        -31.9999999653        0.0000000347
  Core density on regular grids:               31.9999999999       -0.0000000001
  Total charge density on r-space grids:        0.0000000346
  Total charge density g-space grids:           0.0000000346

  Overlap energy of the core charge distribution:               0.00000000000000
  Self energy of the core charge distribution:               -138.89582544120611
  Core Hamiltonian energy:                                     27.12011817493190
  Hartree energy:                                              56.78401709141651
  Exchange-correlation energy:                                -11.00740754608431

  Total energy:                                               -65.99909772094202

 ENERGY| Total FORCE_EVAL ( QS ) energy [a.u.]:              -65.999096817972969

 --------  Informations at step =     5 ------------
  Optimization Method        =                 BFGS
  Total Energy               =       -65.9990968180
  Internal Pressure [bar]    =      -677.3777466052
  Real energy change         =        -0.0000245948
  Predicted change in energy =        -0.0000159196
  Scaling factor             =         0.0000000000
  Step size                  =         0.0178217901
  Trust radius               =         0.4724315332
  Decrease in energy         =                  YES
  Used time                  =               24.746

  Convergence check :
  Max. step size             =         0.0178217901
  Conv. limit for step size  =         0.0030000000
  Convergence in step size   =                   NO
  RMS step size              =         0.0085725405
  Conv. limit for RMS step   =         0.0015000000
  Convergence in RMS step    =                   NO
  Max. gradient              =         0.0011087682
  Conv. limit for gradients  =         0.0000190000
  Conv. for gradients        =                   NO
  RMS gradient               =         0.0004481276
  Conv. limit for RMS grad.  =         0.0003000000
  Conv. for gradients        =                   NO
  Pressure Deviation [bar]   =      -644.5244612835
  Pressure Tolerance [bar]   =       100.0000000000
  Conv. for  PRESSURE        =                   NO
 ---------------------------------------------------

 --------------------------
 OPTIMIZATION STEP:      6
 --------------------------

 CELL| Volume [angstrom^3]:                                           206.927299
 CELL| Vector a [angstrom]:       6.610     0.000     0.000   |a| =     6.610188
 CELL| Vector b [angstrom]:       3.306     5.757     0.000   |b| =     6.638863
 CELL| Vector c [angstrom]:       3.306     1.893     5.437   |c| =     6.638931
 CELL| Angle (b,c), alpha [degree]:                                    60.318455
 CELL| Angle (a,c), beta  [degree]:                                    60.135983
 CELL| Angle (a,b), gamma [degree]:                                    60.135648
 CELL| Numerically orthorhombic:                                              NO

 Number of electrons:                                                         32
 Number of occupied orbitals:                                                 16
 Number of molecular orbitals:                                                16

 Number of orbital functions:                                                 71
 Number of independent orbital functions:                                     71

 Extrapolation method: initial_guess


 SCF WAVEFUNCTION OPTIMIZATION

  Step     Update method      Time    Convergence         Total energy    Change
  ------------------------------------------------------------------------------
     1 Broy./Diag. 0.30E+00    2.3     0.00398451       -65.9994021965 -6.60E+01
     2 Broy./Diag. 0.30E+00    2.7     0.00063217       -65.9996106634 -2.08E-04
     3 Broy./Diag. 0.30E+00    2.8     0.00089137       -65.9993013732  3.09E-04
     4 Broy./Diag. 0.30E+00    2.8     0.00016687       -65.9991533248  1.48E-04
     5 Broy./Diag. 0.30E+00    2.8     0.00005833       -65.9991236790  2.96E-05
     6 Broy./Diag. 0.30E+00    2.8     0.00002117       -65.9991302804 -6.60E-06
     7 Broy./Diag. 0.30E+00    2.8     0.00000851       -65.9991374032 -7.12E-06
     8 Broy./Diag. 0.30E+00    2.8     0.00000190       -65.9991389104 -1.51E-06
     9 Broy./Diag. 0.30E+00    2.9     0.00000077       -65.9991384834  4.27E-07

  *** SCF run converged in     9 steps ***


  Electronic density on regular grids:        -32.0000000352       -0.0000000352
  Core density on regular grids:               31.9999999999       -0.0000000001
  Total charge density on r-space grids:       -0.0000000353
  Total charge density g-space grids:          -0.0000000353

  Overlap energy of the core charge distribution:               0.00000000000000
  Self energy of the core charge distribution:               -138.89582544120611
  Core Hamiltonian energy:                                     27.12018308729526
  Hartree energy:                                              56.78405473175872
  Exchange-correlation energy:                                -11.00755086120933

  Total energy:                                               -65.99913848336146

 ENERGY| Total FORCE_EVAL ( QS ) energy [a.u.]:              -65.999138097807986

 --------  Informations at step =     6 ------------
  Optimization Method        =                 BFGS
  Total Energy               =       -65.9991380978
  Internal Pressure [bar]    =      -672.1171075233
  Real energy change         =        -0.0000412798
  Predicted change in energy =        -0.0000259005
  Scaling factor             =         0.0000000000
  Step size                  =         0.0261067333
  Trust radius               =         0.4724315332
  Decrease in energy         =                  YES
  Used time                  =               28.154

  Convergence check :
  Max. step size             =         0.0261067333
  Conv. limit for step size  =         0.0030000000
  Convergence in step size   =                   NO
  RMS step size              =         0.0121050905
  Conv. limit for RMS step   =         0.0015000000
  Convergence in RMS step    =                   NO
  Max. gradient              =         0.0009382624
  Conv. limit for gradients  =         0.0000190000
  Conv. for gradients        =                   NO
  RMS gradient               =         0.0004456807
  Conv. limit for RMS grad.  =         0.0003000000
  Conv. for gradients        =                   NO
  Pressure Deviation [bar]   =      -639.2638222015
  Pressure Tolerance [bar]   =       100.0000000000
  Conv. for  PRESSURE        =                   NO
 ---------------------------------------------------

 --------------------------
 OPTIMIZATION STEP:      7
 --------------------------

 CELL| Volume [angstrom^3]:                                           206.371669
 CELL| Vector a [angstrom]:       6.613     0.000     0.000   |a| =     6.613012
 CELL| Vector b [angstrom]:       3.306     5.749     0.000   |b| =     6.631935
 CELL| Vector c [angstrom]:       3.306     1.896     5.428   |c| =     6.631993
 CELL| Angle (b,c), alpha [degree]:                                    60.245998
 CELL| Angle (a,c), beta  [degree]:                                    60.103697
 CELL| Angle (a,b), gamma [degree]:                                    60.103407
 CELL| Numerically orthorhombic:                                              NO

 Number of electrons:                                                         32
 Number of occupied orbitals:                                                 16
 Number of molecular orbitals:                                                16

 Number of orbital functions:                                                 71
 Number of independent orbital functions:                                     71

 Extrapolation method: initial_guess


 SCF WAVEFUNCTION OPTIMIZATION

  Step     Update method      Time    Convergence         Total energy    Change
  ------------------------------------------------------------------------------
     1 Broy./Diag. 0.30E+00    2.4     0.00636632       -66.0003615807 -6.60E+01
     2 Broy./Diag. 0.30E+00    2.8     0.00123563       -65.9995140178  8.48E-04
     3 Broy./Diag. 0.30E+00    2.8     0.00162544       -65.9993981430  1.16E-04
     4 Broy./Diag. 0.30E+00    2.9     0.00027205       -65.9992850435  1.13E-04
     5 Broy./Diag. 0.30E+00    2.8     0.00011772       -65.9992075131  7.75E-05
     6 Broy./Diag. 0.30E+00    2.8     0.00006538       -65.9992028627  4.65E-06
     7 Broy./Diag. 0.30E+00    2.8     0.00001409       -65.9992070072 -4.14E-06
     8 Broy./Diag. 0.30E+00    2.8     0.00000466       -65.9992082026 -1.20E-06
     9 Broy./Diag. 0.30E+00    3.0     0.00000147       -65.9992080786  1.24E-07
    10 Broy./Diag. 0.30E+00    2.8     0.00000023       -65.9992078686  2.10E-07

  *** SCF run converged in    10 steps ***


  Electronic density on regular grids:        -31.9999999749        0.0000000251
  Core density on regular grids:               31.9999999999       -0.0000000001
  Total charge density on r-space grids:        0.0000000251
  Total charge density g-space grids:           0.0000000251

  Overlap energy of the core charge distribution:               0.00000000000000
  Self energy of the core charge distribution:               -138.89582544120611
  Core Hamiltonian energy:                                     27.12165623586003
  Hartree energy:                                              56.78348005970290
  Exchange-correlation energy:                                -11.00851872298765

  Total energy:                                               -65.99920786863083

 ENERGY| Total FORCE_EVAL ( QS ) energy [a.u.]:              -65.999207833185849

 --------  Informations at step =     7 ------------
  Optimization Method        =                 BFGS
  Total Energy               =       -65.9992078332
  Internal Pressure [bar]    =      -506.9236952703
  Real energy change         =        -0.0000697354
  Predicted change in energy =        -0.0000479231
  Scaling factor             =         0.0000000000
  Step size                  =         0.0497354646
  Trust radius               =         0.4724315332
  Decrease in energy         =                  YES
  Used time                  =               31.233

  Convergence check :
  Max. step size             =         0.0497354646
  Conv. limit for step size  =         0.0030000000
  Convergence in step size   =                   NO
  RMS step size              =         0.0202802875
  Conv. limit for RMS step   =         0.0015000000
  Convergence in RMS step    =                   NO
  Max. gradient              =         0.0009081249
  Conv. limit for gradients  =         0.0000190000
  Conv. for gradients        =                   NO
  RMS gradient               =         0.0003965931
  Conv. limit for RMS grad.  =         0.0003000000
  Conv. for gradients        =                   NO
  Pressure Deviation [bar]   =      -474.0704099485
  Pressure Tolerance [bar]   =       100.0000000000
  Conv. for  PRESSURE        =                   NO
 ---------------------------------------------------

 --------------------------
 OPTIMIZATION STEP:      8
 --------------------------

 CELL| Volume [angstrom^3]:                                           205.649425
 CELL| Vector a [angstrom]:       6.616     0.000     0.000   |a| =     6.616018
 CELL| Vector b [angstrom]:       3.305     5.739     0.000   |b| =     6.623218
 CELL| Vector c [angstrom]:       3.305     1.900     5.416   |c| =     6.623268
 CELL| Angle (b,c), alpha [degree]:                                    60.151982
 CELL| Angle (a,c), beta  [degree]:                                    60.062249
 CELL| Angle (a,b), gamma [degree]:                                    60.061999
 CELL| Numerically orthorhombic:                                              NO

 Number of electrons:                                                         32
 Number of occupied orbitals:                                                 16
 Number of molecular orbitals:                                                16

 Number of orbital functions:                                                 71
 Number of independent orbital functions:                                     71

 Extrapolation method: initial_guess


 SCF WAVEFUNCTION OPTIMIZATION

  Step     Update method      Time    Convergence         Total energy    Change
  ------------------------------------------------------------------------------
     1 Broy./Diag. 0.30E+00    2.3     0.00628097       -66.0008896620 -6.60E+01
     2 Broy./Diag. 0.30E+00    2.8     0.00113258       -65.9987926355  2.10E-03
     3 Broy./Diag. 0.30E+00    2.8     0.00139705       -65.9992062027 -4.14E-04
     4 Broy./Diag. 0.30E+00    2.9     0.00028325       -65.9993430083 -1.37E-04
     5 Broy./Diag. 0.30E+00    2.8     0.00011287       -65.9992906763  5.23E-05
     6 Broy./Diag. 0.30E+00    2.8     0.00007341       -65.9992712290  1.94E-05
     7 Broy./Diag. 0.30E+00    2.8     0.00001064       -65.9992650788  6.15E-06
     8 Broy./Diag. 0.30E+00    2.8     0.00000462       -65.9992626772  2.40E-06
     9 Broy./Diag. 0.30E+00    3.0     0.00000116       -65.9992625957  8.15E-08
    10 Broy./Diag. 0.30E+00    2.8     0.00000016       -65.9992628631 -2.67E-07

  *** SCF run converged in    10 steps ***


  Electronic density on regular grids:        -31.9999999007        0.0000000993
  Core density on regular grids:               31.9999999999       -0.0000000001
  Total charge density on r-space grids:        0.0000000992
  Total charge density g-space grids:           0.0000000992

  Overlap energy of the core charge distribution:               0.00000000000000
  Self energy of the core charge distribution:               -138.89582544120611
  Core Hamiltonian energy:                                     27.12435069235035
  Hartree energy:                                              56.78229435407138
  Exchange-correlation energy:                                -11.01008246835838

  Total energy:                                               -65.99926286314276

 ENERGY| Total FORCE_EVAL ( QS ) energy [a.u.]:              -65.999262999098391

 --------  Informations at step =     8 ------------
  Optimization Method        =                 BFGS
  Total Energy               =       -65.9992629991
  Internal Pressure [bar]    =      -199.8801704200
  Real energy change         =        -0.0000551659
  Predicted change in energy =        -0.0000409942
  Scaling factor             =         0.0000000000
  Step size                  =         0.0470571697
  Trust radius               =         0.4724315332
  Decrease in energy         =                  YES
  Used time                  =               31.504

  Convergence check :
  Max. step size             =         0.0470571697
  Conv. limit for step size  =         0.0030000000
  Convergence in step size   =                   NO
  RMS step size              =         0.0179462304
  Conv. limit for RMS step   =         0.0015000000
  Convergence in RMS step    =                   NO
  Max. gradient              =         0.0007722921
  Conv. limit for gradients  =         0.0000190000
  Conv. for gradients        =                   NO
  RMS gradient               =         0.0002960115
  Conv. limit for RMS grad.  =         0.0003000000
  Conv. in RMS gradients     =                  YES
  Pressure Deviation [bar]   =      -167.0268850983
  Pressure Tolerance [bar]   =       100.0000000000
  Conv. for  PRESSURE        =                   NO
 ---------------------------------------------------

 --------------------------
 OPTIMIZATION STEP:      9
 --------------------------

 CELL| Volume [angstrom^3]:                                           205.274823
 CELL| Vector a [angstrom]:       6.617     0.000     0.000   |a| =     6.617211
 CELL| Vector b [angstrom]:       3.305     5.734     0.000   |b| =     6.618865
 CELL| Vector c [angstrom]:       3.305     1.903     5.410   |c| =     6.618911
 CELL| Angle (b,c), alpha [degree]:                                    60.103084
 CELL| Angle (a,c), beta  [degree]:                                    60.040991
 CELL| Angle (a,b), gamma [degree]:                                    60.040759
 CELL| Numerically orthorhombic:                                              NO

 Number of electrons:                                                         32
 Number of occupied orbitals:                                                 16
 Number of molecular orbitals:                                                16

 Number of orbital functions:                                                 71
 Number of independent orbital functions:                                     71

 Extrapolation method: initial_guess


 SCF WAVEFUNCTION OPTIMIZATION

  Step     Update method      Time    Convergence         Total energy    Change
  ------------------------------------------------------------------------------
     1 Broy./Diag. 0.30E+00    2.4     0.00597190       -66.0001171186 -6.60E+01
     2 Broy./Diag. 0.30E+00    2.8     0.00051333       -65.9988109366  1.31E-03
     3 Broy./Diag. 0.30E+00    3.1     0.00048159       -65.9991511760 -3.40E-04
     4 Broy./Diag. 0.30E+00    2.8     0.00010407       -65.9993051869 -1.54E-04
     5 Broy./Diag. 0.30E+00    2.8     0.00004076       -65.9993047947  3.92E-07
     6 Broy./Diag. 0.30E+00    2.8     0.00003002       -65.9992920922  1.27E-05
     7 Broy./Diag. 0.30E+00    2.8     0.00000549       -65.9992856587  6.43E-06
     8 Broy./Diag. 0.30E+00    2.9     0.00000200       -65.9992832987  2.36E-06
     9 Broy./Diag. 0.30E+00    2.8     0.00000034       -65.9992833778 -7.90E-08

  *** SCF run converged in     9 steps ***


  Electronic density on regular grids:        -31.9999999681        0.0000000319
  Core density on regular grids:               31.9999999999       -0.0000000001
  Total charge density on r-space grids:        0.0000000318
  Total charge density g-space grids:           0.0000000318

  Overlap energy of the core charge distribution:               0.00000000000000
  Self energy of the core charge distribution:               -138.89582544120611
  Core Hamiltonian energy:                                     27.12590730896763
  Hartree energy:                                              56.78158738056014
  Exchange-correlation energy:                                -11.01095262609106

  Total energy:                                               -65.99928337776940

 ENERGY| Total FORCE_EVAL ( QS ) energy [a.u.]:              -65.999283779422399

 --------  Informations at step =     9 ------------
  Optimization Method        =                 BFGS
  Total Energy               =       -65.9992837794
  Internal Pressure [bar]    =       -20.4195726139
  Real energy change         =        -0.0000207803
  Predicted change in energy =        -0.0000162392
  Scaling factor             =         0.0000000000
  Step size                  =         0.0221517169
  Trust radius               =         0.4724315332
  Decrease in energy         =                  YES
  Used time                  =               28.888

  Convergence check :
  Max. step size             =         0.0221517169
  Conv. limit for step size  =         0.0030000000
  Convergence in step size   =                   NO
  RMS step size              =         0.0086641238
  Conv. limit for RMS step   =         0.0015000000
  Convergence in RMS step    =                   NO
  Max. gradient              =         0.0006689117
  Conv. limit for gradients  =         0.0000190000
  Conv. for gradients        =                   NO
  RMS gradient               =         0.0002332744
  Conv. limit for RMS grad.  =         0.0003000000
  Conv. in RMS gradients     =                  YES
  Pressure Deviation [bar]   =        12.4337127079
  Pressure Tolerance [bar]   =       100.0000000000
  Conv. for  PRESSURE        =                  YES
 ---------------------------------------------------

 --------------------------
 OPTIMIZATION STEP:     10
 --------------------------

 CELL| Volume [angstrom^3]:                                           205.221724
 CELL| Vector a [angstrom]:       6.617     0.000     0.000   |a| =     6.617238
 CELL| Vector b [angstrom]:       3.305     5.734     0.000   |b| =     6.618326
 CELL| Vector c [angstrom]:       3.305     1.903     5.409   |c| =     6.618370
 CELL| Angle (b,c), alpha [degree]:                                    60.095832
 CELL| Angle (a,c), beta  [degree]:                                    60.038003
 CELL| Angle (a,b), gamma [degree]:                                    60.037781
 CELL| Numerically orthorhombic:                                              NO

 Number of electrons:                                                         32
 Number of occupied orbitals:                                                 16
 Number of molecular orbitals:                                                16

 Number of orbital functions:                                                 71
 Number of independent orbital functions:                                     71

 Extrapolation method: initial_guess


 SCF WAVEFUNCTION OPTIMIZATION

  Step     Update method      Time    Convergence         Total energy    Change
  ------------------------------------------------------------------------------
     1 Broy./Diag. 0.30E+00    2.4     0.00224964       -65.9994057720 -6.60E+01
     2 Broy./Diag. 0.30E+00    2.8     0.00011954       -65.9992143756  1.91E-04
     3 Broy./Diag. 0.30E+00    3.0     0.00016501       -65.9992719530 -5.76E-05
     4 Broy./Diag. 0.30E+00    2.9     0.00003079       -65.9992938333 -2.19E-05
     5 Broy./Diag. 0.30E+00    2.8     0.00001277       -65.9992898443  3.99E-06
srun: Job step aborted: Waiting up to 32 seconds for job step to finish.
slurmstepd: error: *** STEP 23795445.0 ON mpcl027 CANCELLED AT 2021-05-24T13:37:02 DUE TO TIME LIMIT ***
*** longjmp causes uninitialized stack frame ***: /user/pubo1141/software/cp2k/cp2k-8.1/exe/carl-mkl-impi/cp2k.psmp terminated
*** longjmp causes uninitialized stack frame ***: /user/pubo1141/software/cp2k/cp2k-8.1/exe/carl-mkl-impi/cp2k.psmp terminated
*** longjmp causes uninitialized stack frame ***: /user/pubo1141/software/cp2k/cp2k-8.1/exe/carl-mkl-impi/cp2k.psmp terminated
*** longjmp causes uninitialized stack frame ***: /user/pubo1141/software/cp2k/cp2k-8.1/exe/carl-mkl-impi/cp2k.psmp terminated
*** longjmp causes uninitialized stack frame ***: /user/pubo1141/software/cp2k/cp2k-8.1/exe/carl-mkl-impi/cp2k.psmp terminated
*** longjmp causes uninitialized stack frame ***: /user/pubo1141/software/cp2k/cp2k-8.1/exe/carl-mkl-impi/cp2k.psmp terminated
*** longjmp causes uninitialized stack frame ***: /user/pubo1141/software/cp2k/cp2k-8.1/exe/carl-mkl-impi/cp2k.psmp terminated
*** longjmp causes uninitialized stack frame ***: /user/pubo1141/software/cp2k/cp2k-8.1/exe/carl-mkl-impi/cp2k.psmp terminated
*** longjmp causes uninitialized stack frame ***: /user/pubo1141/software/cp2k/cp2k-8.1/exe/carl-mkl-impi/cp2k.psmp terminated
*** longjmp causes uninitialized stack frame ***: /user/pubo1141/software/cp2k/cp2k-8.1/exe/carl-mkl-impi/cp2k.psmp terminated
======= Backtrace: =========
======= Backtrace: =========
======= Backtrace: =========
======= Backtrace: =========
======= Backtrace: =========
======= Backtrace: =========
======= Backtrace: =========
/lib64/libc.so.6(__fortify_fail+0x37)[0x2aaab4848b37]
======= Backtrace: =========
/lib64/libc.so.6(__fortify_fail+0x37)[0x2aaab4848b37]
======= Backtrace: =========
/lib64/libc.so.6(__fortify_fail+0x37)[0x2aaab4848b37]
*** longjmp causes uninitialized stack frame ***: /user/pubo1141/software/cp2k/cp2k-8.1/exe/carl-mkl-impi/cp2k.psmp terminated
======= Backtrace: =========
*** longjmp causes uninitialized stack frame ***: /user/pubo1141/software/cp2k/cp2k-8.1/exe/carl-mkl-impi/cp2k.psmp terminated
======= Backtrace: =========
/lib64/libc.so.6(__fortify_fail+0x37)[0x2aaab4848b37]
/lib64/libc.so.6(+0x10da5d)[0x2aaab4848a5d]
/lib64/libc.so.6(__fortify_fail+0x37)[0x2aaab4848b37]
/lib64/libc.so.6(+0x10da5d)[0x2aaab4848a5d]
/lib64/libc.so.6(__fortify_fail+0x37)[0x2aaab4848b37]
/lib64/libc.so.6(+0x10da5d)[0x2aaab4848a5d]
/lib64/libc.so.6(__fortify_fail+0x37)[0x2aaab4848b37]
/lib64/libc.so.6(+0x10da5d)[0x2aaab4848a5d]
/lib64/libc.so.6(__longjmp_chk+0x29)[0x2aaab48489b9]
/lib64/libc.so.6(__fortify_fail+0x37)[0x2aaab4848b37]
/lib64/libc.so.6(+0x10da5d)[0x2aaab4848a5d]
/lib64/libc.so.6(__fortify_fail+0x37)[0x2aaab4848b37]
/lib64/libc.so.6(+0x10da5d)[0x2aaab4848a5d]
/lib64/libc.so.6(+0x10da5d)[0x2aaab4848a5d]
/lib64/libc.so.6(__longjmp_chk+0x29)[0x2aaab48489b9]
/lib64/libc.so.6(+0x10da5d)[0x2aaab4848a5d]
/lib64/libc.so.6(+0x10da5d)[0x2aaab4848a5d]
/lib64/libc.so.6(__longjmp_chk+0x29)[0x2aaab48489b9]
/user/pubo1141/software/cp2k/cp2k-8.1/exe/carl-mkl-impi/cp2k.psmp[0x3a82c86]
======= Backtrace: =========
/lib64/libc.so.6(__fortify_fail+0x37)[0x2aaab4848b37]
/lib64/libc.so.6(__longjmp_chk+0x29)[0x2aaab48489b9]
/user/pubo1141/software/cp2k/cp2k-8.1/exe/carl-mkl-impi/cp2k.psmp[0x3a82c86]
/lib64/libpthread.so.0(+0xf100)[0x2aaab2a00100]
/user/pubo1141/software/cp2k/cp2k-8.1/exe/carl-mkl-impi/cp2k.psmp[0x3a82c70]
======= Memory map: ========
/lib64/libc.so.6(__longjmp_chk+0x29)[0x2aaab48489b9]
/user/pubo1141/software/cp2k/cp2k-8.1/exe/carl-mkl-impi/cp2k.psmp[0x3a82c86]
/lib64/libpthread.so.0(+0xf100)[0x2aaab2a00100]
/user/pubo1141/software/cp2k/cp2k-8.1/exe/carl-mkl-impi/cp2k.psmp[0x3a82c70]
======= Memory map: ========
/lib64/libc.so.6(__longjmp_chk+0x29)[0x2aaab48489b9]
/user/pubo1141/software/cp2k/cp2k-8.1/exe/carl-mkl-impi/cp2k.psmp[0x3a82c86]
/lib64/libpthread.so.0(+0xf100)[0x2aaab2a00100]
/user/pubo1141/software/cp2k/cp2k-8.1/exe/carl-mkl-impi/cp2k.psmp[0x3a82c70]
======= Memory map: ========
*** longjmp causes uninitialized stack frame ***: /user/pubo1141/software/cp2k/cp2k-8.1/exe/carl-mkl-impi/cp2k.psmp terminated
/user/pubo1141/software/cp2k/cp2k-8.1/exe/carl-mkl-impi/cp2k.psmp[0x3a82c86]
/lib64/libpthread.so.0(+0xf100)[0x2aaab2a00100]
/user/pubo1141/software/cp2k/cp2k-8.1/exe/carl-mkl-impi/cp2k.psmp[0x3a82c70]
======= Memory map: ========
/lib64/libc.so.6(__longjmp_chk+0x29)[0x2aaab48489b9]
/user/pubo1141/software/cp2k/cp2k-8.1/exe/carl-mkl-impi/cp2k.psmp[0x3a82c86]
/lib64/libpthread.so.0(+0xf100)[0x2aaab2a00100]
/user/pubo1141/software/cp2k/cp2k-8.1/exe/carl-mkl-impi/cp2k.psmp[0x3a82c70]
======= Memory map: ========
/lib64/libc.so.6(__longjmp_chk+0x29)[0x2aaab48489b9]
/user/pubo1141/software/cp2k/cp2k-8.1/exe/carl-mkl-impi/cp2k.psmp[0x3a82c86]
/lib64/libpthread.so.0(+0xf100)[0x2aaab2a00100]
/user/pubo1141/software/cp2k/cp2k-8.1/exe/carl-mkl-impi/cp2k.psmp[0x3a82c70]
======= Memory map: ========
/user/pubo1141/software/cp2k/cp2k-8.1/exe/carl-mkl-impi/cp2k.psmp[0x3a82c86]
/lib64/libpthread.so.0(+0xf100)[0x2aaab2a00100]
/user/pubo1141/software/cp2k/cp2k-8.1/exe/carl-mkl-impi/cp2k.psmp[0x3a82c70]
======= Memory map: ========
/lib64/libc.so.6(__longjmp_chk+0x29)[0x2aaab48489b9]
/user/pubo1141/software/cp2k/cp2k-8.1/exe/carl-mkl-impi/cp2k.psmp[0x3a82c86]
/lib64/libpthread.so.0(+0xf100)[0x2aaab2a00100]
/user/pubo1141/software/cp2k/cp2k-8.1/exe/carl-mkl-impi/cp2k.psmp[0x3a82c70]
======= Memory map: ========
/lib64/libpthread.so.0(+0xf100)[0x2aaab2a00100]
/user/pubo1141/software/cp2k/cp2k-8.1/exe/carl-mkl-impi/cp2k.psmp[0x3a82c70]
======= Memory map: ========
/lib64/libc.so.6(__fortify_fail+0x37)[0x2aaab4848b37]
/lib64/libc.so.6(+0x10da5d)[0x2aaab4848a5d]
/lib64/libc.so.6(__longjmp_chk+0x29)[0x2aaab48489b9]
/user/pubo1141/software/cp2k/cp2k-8.1/exe/carl-mkl-impi/cp2k.psmp[0x3a82c86]
/lib64/libc.so.6(__fortify_fail+0x37)[0x2aaab4848b37]
/lib64/libc.so.6(+0x10da5d)[0x2aaab4848a5d]
/lib64/libc.so.6(__longjmp_chk+0x29)[0x2aaab48489b9]
00400000-0040b000 r--p 00000000 00:2c 1088931211                         /user/pubo1141/software/cp2k/cp2k-8.1/exe/carl-mkl-impi/cp2k.psmp
0040b000-03aa2000 r-xp 0000b000 00:2c 1088931211                         /user/pubo1141/software/cp2k/cp2k-8.1/exe/carl-mkl-impi/cp2k.psmp
03aa2000-040a0000 r--p 036a2000 00:2c 1088931211                         /user/pubo1141/software/cp2k/cp2k-8.1/exe/carl-mkl-impi/cp2k.psmp
040a1000-040a3000 r--p 03ca0000 00:2c 1088931211                         /user/pubo1141/software/cp2k/cp2k-8.1/exe/carl-mkl-impi/cp2k.psmp
040a3000-0462b000 rw-p 03ca2000 00:2c 1088931211                         /user/pubo1141/software/cp2k/cp2k-8.1/exe/carl-mkl-impi/cp2k.psmp
0462b000-28180000 rw-p 00000000 00:00 0                                  [heap]
2aaaaaaab000-2aaaaaacc000 r-xp 00000000 00:1c 81712                      /usr/lib64/ld-2.17.so
2aaaaaacc000-2aaaaaace000 r-xp 00000000 00:00 0                          [vdso]
2aaaaaace000-2aaaaaad1000 rw-p 00000000 00:00 0 
2aaaaaad1000-2aaaaaad2000 r--s 0fb00000 00:05 16601                      /dev/infiniband/uverbs0
2aaaaaad2000-2aaaaaad3000 r--p 103bb07000 00:05 16601                    /dev/infiniband/uverbs0
2aaaaaad3000-2aaaaaad4000 -w-s 00200000 00:05 16601                      /dev/infiniband/uverbs0
2aaaaaad4000-2aaaaaad5000 -w-s 00201000 00:05 16601                      /dev/infiniband/uverbs0
2aaaaaad5000-2aaaaaad6000 -w-s 00202000 00:05 16601                      /dev/infiniband/uverbs0
2aaaaaad6000-2aaaaaad7000 -w-s 00203000 00:05 16601                      /dev/infiniband/uverbs0
2aaaaaad7000-2aaaaaad8000 -w-s 00204000 00:05 16601                      /dev/infiniband/uverbs0
2aaaaaad8000-2aaaaaad9000 -w-s 00205000 00:05 16601                      /dev/infiniband/uverbs0
2aaaaaad9000-2aaaaaada000 -w-s 00206000 00:05 16601                      /dev/infiniband/uverbs0
2aaaaaada000-2aaaaaadb000 -w-s 00207000 00:05 16601                      /dev/infiniband/uverbs0
2aaaaaadb000-2aaaaaadc000 r--s 0fb00000 00:05 16601                      /dev/i00400000-0040b000 r--p 00000000 00:2c 1088931211                         /user/pubo1141/software/cp2k/cp2k-8.1/exe/carl-mkl-impi/cp2k.psmp
0040b000-03aa2000 r-xp 0000b000 00:2c 1088931211                         /user/pubo1141/software/cp2k/cp2k-8.1/exe/carl-mkl-impi/cp2k.psmp
03aa2000-040a0000 r--p 036a2000 00:2c 1088931211                         /user/pubo1141/software/cp2k/cp2k-8.1/exe/carl-mkl-impi/cp2k.psmp
040a1000-040a3000 r--p 03ca0000 00:2c 1088931211                         /user/pubo1141/software/cp2k/cp2k-8.1/exe/carl-mkl-impi/cp2k.psmp
040a3000-0462b000 rw-p 03ca2000 00:2c 1088931211                         /user/pubo1141/software/cp2k/cp2k-8.1/exe/carl-mkl-impi/cp2k.psmp
0462b000-28170000 rw-p 00000000 00:00 0                                  [heap]
2aaaaaaab000-2aaaaaacc000 r-xp 00000000 00:1c 81712                      /usr/lib64/ld-2.17.so
2aaaaaacc000-2aaaaaace000 r-xp 00000000 00:00 0                          [vdso]
2aaaaaace000-2aaaaaad1000 rw-p 00000000 00:00 0 
2aaaaaad1000-2aaaaaad200000400000-0040b000 r--p 00000000 00:2c 1088931211                         /user/pubo1141/software/cp2k/cp2k-8.1/exe/carl-mkl-impi/cp2k.psmp
0040b000-03aa2000 r-xp 0000b000 00:2c 1088931211                         /user/pubo1141/software/cp2k/cp2k-8.1/exe/carl-mkl-impi/cp2k.psmp
03aa2000-040a0000 r--p 036a2000 00:2c 1088931211                         /user/pubo1141/software/cp2k/cp2k-8.1/exe/carl-mkl-impi/cp2k.psmp
040a1000-040a3000 r--p 03ca0000 00:2c 1088931211                         /user/pubo1141/software/cp2k/cp2k-8.1/exe/carl-mkl-impi/cp2k.psmp
040a3000-0462b000 rw-p 03ca2000 00:2c 1088931211                         /user/pubo1141/software/cp2k/cp2k-8.1/exe/carl-mkl-impi/cp2k.psmp
0462b000-2817d000 rw-p 00000000 00:00 0                                  [heap]
2aaaaaaab000-2aaaaaacc000 r-xp 00000000 00:1c 81712                      /usr/lib64/ld-2.17.so
2aaaaaacc000-2aaaaaace000 r-xp 00000000 00:00 0                          [vdso]
2aaaaaace000-2aaaaaad1000 rw-p 00000000 00:00 0 
2aaaaaad1000-2aaaaaad2000 r--s 0fb00000 00:05 16601                      /dev/infiniband/uverbs0
2aaaaaad2000-2aaaaaad3000 r--p 103bb07000 00:05 16601                    /dev/infiniband/uverbs0
2aaaaaad3000-2aaaaaad4000 -w-s 00200000 00:05 16601                      /dev/infiniband/uverbs0
2aaaaaad4000-2aaaaaad5000 -w-s 00201000 00:05 16601                      /dev/infiniband/uverbs0
2aaaaaad5000-2aaaaaad6000 -w-s 00202000 00:05 16601                      /dev/infiniband/uverbs0
2aaaaaad6000-2aaaaaad7000 -w-s 00203000 00:05 16601                      /dev/infiniband/uverbs0
2aaaaaad7000-2aaaaaad8000 -w-s 00204000 00:05 16601                      /dev/infiniband/uverbs0
2aaaaaad8000-2aaaaaad9000 -w-s 00205000 00:05 16601                      /dev/infiniband/uverbs0
2aaaaaad9000-2aaaaaada000 -w-s 00206000 00:05 16601                      /dev/infiniband/uverbs0
2aaaaaada000-2aaaaaadb000 -w-s 00207000 00:05 16601                      /dev/infiniband/uverbs0
2aaaaaadb000-2aaaaaadc000 r--s 0fb00000 00:05 16601                      /dev/i00400000-0040b000 r--p 00000000 00:2c 1088931211                         /user/pubo1141/software/cp2k/cp2k-8.1/exe/carl-mkl-impi/cp2k.psmp
0040b000-03aa2000 r-xp 0000b000 00:2c 1088931211                         /user/pubo1141/software/cp2k/cp2k-8.1/exe/carl-mkl-impi/cp2k.psmp
03aa2000-040a0000 r--p 036a2000 00:2c 1088931211                         /user/pubo1141/software/cp2k/cp2k-8.1/exe/carl-mkl-impi/cp2k.psmp
040a1000-040a3000 r--p 03ca0000 00:2c 1088931211                         /user/pubo1141/software/cp2k/cp2k-8.1/exe/carl-mkl-impi/cp2k.psmp
040a3000-0462b000 rw-p 03ca2000 00:2c 1088931211                         /user/pubo1141/software/cp2k/cp2k-8.1/exe/carl-mkl-impi/cp2k.psmp
0462b000-281d2000 rw-p 00000000 00:00 0                                  [heap]
2aaaaaaab000-2aaaaaacc000 r-xp 00000000 00:1c 81712                      /usr/lib64/ld-2.17.so
2aaaaaacc000-2aaaaaace000 r-xp 00000000 00:00 0                          [vdso]
2aaaaaace000-2aaaaaad1000 rw-p 00000000 00:00 0 
2aaaaaad1000-2aaaaaad2000 r--s 0fb00000 00:05 16601                      /dev/infiniband/uverbs0
2aaaaaad2000-2aaaaaad3000 r--p 103bb07000 00:05 16601                    /dev/infiniband/uverbs0
2aaaaaad3000-2aaaaaad4000 -w-s 00200000 00:05 16601                      /dev/infiniband/uverbs0
2aaaaaad4000-2aaaaaad5000 -w-s 00201000 00:05 16601                      /dev/infiniband/uverbs0
2aaaaaad5000-2aaaaaad6000 -w-s 00202000 00:05 16601                      /dev/infiniband/uverbs0
2aaaaaad6000-2aaaaaad7000 -w-s 00203000 00:05 16601                      /dev/infiniband/uverbs0
2aaaaaad7000-2aaaaaad8000 -w-s 00204000 00:05 16601                      /dev/infiniband/uverbs0
2aaaaaad8000-2aaaaaad9000 -w-s 00205000 00:05 16601                      /dev/infiniband/uverbs0
2aaaaaad9000-2aaaaaada000 -w-s 00206000 00:05 16601                      /dev/infiniband/uverbs0
2aaaaaada000-2aaaaaadb000 -w-s 00207000 00:05 16601                      /dev/infiniband/uverbs0
2aaaaaadb000-2aaaaaadc000 r--s 0fb00000 00:05 16601                      /dev/i00400000-0040b000 r--p 00000000 00:2c 1088931211                         /user/pubo1141/software/cp2k/cp2k-8.1/exe/carl-mkl-impi/cp2k.psmp
0040b000-03aa2000 r-xp 0000b000 00:2c 1088931211                         /user/pubo1141/software/cp2k/cp2k-8.1/exe/carl-mkl-impi/cp2k.psmp
03aa2000-040a0000 r--p 036a2000 00:2c 1088931211                         /user/pubo1141/software/cp2k/cp2k-8.1/exe/carl-mkl-impi/cp2k.psmp
040a1000-040a3000 r--p 03ca0000 00:2c 1088931211                         /user/pubo1141/software/cp2k/cp2k-8.1/exe/carl-mkl-impi/cp2k.psmp
040a3000-0462b000 rw-p 03ca2000 00:2c 1088931211                         /user/pubo1141/software/cp2k/cp2k-8.1/exe/carl-mkl-impi/cp2k.psmp
0462b000-2816b000 rw-p 00000000 00:00 0                                  [heap]
2aaaaaaab000-2aaaaaacc000 r-xp 00000000 00:1c 81712                      /usr/lib64/ld-2.17.so
2aaaaaacc000-2aaaaaace000 r-xp 00000000 00:00 0                          [vdso]
2aaaaaace000-2aaaaaad1000 rw-p 00000000 00:00 0 
2aaaaaad1000-2aaaaaad2000 r--s 0fb00000 00:05 16601                      /dev/infiniband/uverbs0
2aaaaaad2000-2aaaaaad3000 r--p 103bb07000 00:05 16601                    /dev/infiniband/uverbs0
2aaaaaad3000-2aaaaaad4000 -w-s 00200000 00:05 16601                      /dev/infiniband/uverbs0
2aaaaaad4000-2aaaaaad5000 -w-s 00201000 00:05 16601                      /dev/infiniband/uverbs0
2aaaaaad5000-2aaaaaad6000 -w-s 00202000 00:05 16601                      /dev/infiniband/uverbs0
2aaaaaad6000-2aaaaaad7000 -w-s 00203000 00:05 16601                      /dev/infiniband/uverbs0
2aaaaaad7000-2aaaaaad8000 -w-s 00204000 00:05 16601                      /dev/infiniband/uverbs0
2aaaaaad8000-2aaaaaad9000 -w-s 00205000 00:05 16601                      /dev/infiniband/uverbs0
2aaaaaad9000-2aaaaaada000 -w-s 00206000 00:05 16601                      /dev/infiniband/uverbs0
2aaaaaada000-2aaaaaadb000 -w-s 00207000 00:05 16601                      /dev/infiniband/uverbs0
2aaaaaadb000-2aaaaaadc000 r--s 0fb00000 00:05 16601                      /dev/i00400000-0040b000 r--p 00000000 00:2c 1088931211                         /user/pubo1141/software/cp2k/cp2k-8.1/exe/carl-mkl-impi/cp2k.psmp
0040b000-03aa2000 r-xp 0000b000 00:2c 1088931211                         /user/pubo1141/software/cp2k/cp2k-8.1/exe/carl-mkl-impi/cp2k.psmp
03aa2000-040a0000 r--p 036a2000 00:2c 1088931211                         /user/pubo1141/software/cp2k/cp2k-8.1/exe/carl-mkl-impi/cp2k.psmp
040a1000-040a3000 r--p 03ca0000 00:2c 1088931211                         /user/pubo1141/software/cp2k/cp2k-8.1/exe/carl-mkl-impi/cp2k.psmp
040a3000-0462b000 rw-p 03ca2000 00:2c 1088931211                         /user/pubo1141/software/cp2k/cp2k-8.1/exe/carl-mkl-impi/cp2k.psmp
0462b000-28175000 rw-p 00000000 00:00 0                                  [heap]
2aaaaaaab000-2aaaaaacc000 r-xp 00000000 00:1c 81712                      /usr/lib64/ld-2.17.so
2aaaaaacc000-2aaaaaace000 r-xp 00000000 00:00 0                          [vdso]
2aaaaaace000-2aaaaaad1000 rw-p 00000000 00:00 0 
2aaaaaad1000-2aaaaaad2000 r--s 0fb00000 00:05 16601                      /dev/infiniband/uverbs0
2aaaaaad2000-2aaaaaad3000 r--p 103bb07000 00:05 16601                    /dev/infiniband/uverbs0
2aaaaaad3000-2aaaaaad4000 -w-s 00200000 00:05 16601                      /dev/infiniband/uverbs0
2aaaaaad4000-2aaaaaad5000 -w-s 00201000 00:05 16601                      /dev/infiniband/uverbs0
2aaaaaad5000-2aaaaaad6000 -w-s 00202000 00:05 16601                      /dev/infiniband/uverbs0
2aaaaaad6000-2aaaaaad7000 -w-s 00203000 00:05 16601                      /dev/infiniband/uverbs0
2aaaaaad7000-2aaaaaad8000 -w-s 00204000 00:05 16601                      /dev/infiniband/uverbs0
2aaaaaad8000-2aaaaaad9000 -w-s 00205000 00:05 16601                      /dev/infiniband/uverbs0
2aaaaaad9000-2aaaaaada000 -w-s 00206000 00:05 16601                      /dev/infiniband/uverbs0
2aaaaaada000-2aaaaaadb000 -w-s 00207000 00:05 16601                      /dev/infiniband/uverbs0
2aaaaaadb000-2aaaaaadc000 r--s 0fb00000 00:05 16601                      /dev/i00400000-0040b000 r--p 00000000 00:2c 1088931211                         /user/pubo1141/software/cp2k/cp2k-8.1/exe/carl-mkl-impi/cp2k.psmp
0040b000-03aa2000 r-xp 0000b000 00:2c 1088931211                         /user/pubo1141/software/cp2k/cp2k-8.1/exe/carl-mkl-impi/cp2k.psmp
03aa2000-040a0000 r--p 036a2000 00:2c 1088931211                         /user/pubo1141/software/cp2k/cp2k-8.1/exe/carl-mkl-impi/cp2k.psmp
040a1000-040a3000 r--p 03ca0000 00:2c 1088931211                         /user/pubo1141/software/cp2k/cp2k-8.1/exe/carl-mkl-impi/cp2k.psmp
040a3000-0462b000 rw-p 03ca2000 00:2c 1088931211                         /user/pubo1141/software/cp2k/cp2k-8.1/exe/carl-mkl-impi/cp2k.psmp
0462b000-28178000 rw-p 00000000 00:00 0                                  [heap]
2aaaaaaab000-2aaaaaacc000 r-xp 00000000 00:1c 81712                      /usr/lib64/ld-2.17.so
2aaaaaacc000-2aaaaaace000 r-xp 00000000 00:00 0                          [vdso]
2aaaaaace000-2aaaaaad1000 rw-p 00000000 00:00 0 
2aaaaaad1000-2aaaaaad2000 r--s 0fb00000 00:05 16601                      /dev/infiniband/uverbs0
2aaaaaad2000-2aaaaaad3000 r--p 103bb07000 00:05 16601                    /dev/infiniband/uverbs0
2aaaaaad3000-2aaaaaad4000 -w-s 00200000 00:05 16601                      /dev/infiniband/uverbs0
2aaaaaad4000-2aaaaaad5000 -w-s 00201000 00:05 16601                      /dev/infiniband/uverbs0
2aaaaaad5000-2aaaaaad6000 -w-s 00202000 00:05 16601                      /dev/infiniband/uverbs0
2aaaaaad6000-2aaaaaad7000 -w-s 00203000 00:05 16601                      /dev/infiniband/uverbs0
2aaaaaad7000-2aaaaaad8000 -w-s 00204000 00:05 16601                      /dev/infiniband/uverbs0
2aaaaaad8000-2aaaaaad9000 -w-s 00205000 00:05 16601                      /dev/infiniband/uverbs0
2aaaaaad9000-2aaaaaada000 -w-s 00206000 00:05 16601                      /dev/infiniband/uverbs0
2aaaaaada000-2aaaaaadb000 -w-s 00207000 00:05 16601                      /dev/infiniband/uverbs0
2aaaaaadb000-2aaaaaadc000 r--s 0fb00000 00:05 16601                      /dev/i/lib64/libc.so.6(+0x10da5d)[0x2aaab4848a5d]
/lib64/libc.so.6(__longjmp_chk+0x29)[0x2aaab48489b9]
/user/pubo1141/software/cp2k/cp2k-8.1/exe/carl-mkl-impi/cp2k.psmp[0x3a82c86]
/lib64/libpthread.so.0(+0xf100)[0x2aaab2a00100]
/user/pubo1141/software/cp2k/cp2k-8.1/exe/carl-mkl-impi/cp2k.psmp[0x3a82c70]
======= Memory map: ========
/lib64/libpthread.so.0(+0xf100)[0x2aaab2a00100]
/user/pubo1141/software/cp2k/cp2k-8.1/exe/carl-mkl-impi/cp2k.psmp[0x3a82c70]
======= Memory map: ========
00400000-0040b000 r--p 00000000 00:2c 1088931211                         /user/pubo1141/software/cp2k/cp2k-8.1/exe/carl-mkl-impi/cp2k.psmp
0040b000-03aa2000 r-xp 0000b000 00:2c 1088931211                         /user/pubo1141/software/cp2k/cp2k-8.1/exe/carl-mkl-impi/cp2k.psmp
03aa2000-040a0000 r--p 036a2000 00:2c 1088931211                         /user/pubo1141/software/cp2k/cp2k-8.1/exe/carl-mkl-impi/cp2k.psmp
040a1000-040a3000 r--p 03ca0000 00:2c 1088931211                         /user/pubo1141/software/cp2k/cp2k-8.1/exe/carl-mkl-impi/cp2k.psmp
040a3000-0462b000 rw-p 03ca2000 00:2c 1088931211                         /user/pubo1141/software/cp2k/cp2k-8.1/exe/carl-mkl-impi/cp2k.psmp
0462b000-2816f000 rw-p 00000000 00:00 0                                  [heap]
2aaaaaaab000-2aaaaaacc000 r-xp 00000000 00:1c 81712                      /usr/lib64/ld-2.17.so
2aaaaaacc000-2aaaaaace000 r-xp 00000000 00:00 0                          [vdso]
2aaaaaace000-2aaaaaad1000 rw-p 00000000 00:00 0 
2aaaaaad1000-2aaaaaad2000/user/pubo1141/software/cp2k/cp2k-8.1/exe/carl-mkl-impi/cp2k.psmp[0x3a82c86]
/lib64/libpthread.so.0(+0xf100)[0x2aaab2a00100]
/user/pubo1141/software/cp2k/cp2k-8.1/exe/carl-mkl-impi/cp2k.psmp[0x3a82c70]
======= Memory map: ========
nfiniband/uverbs0
2aaaaaadc000-2aaaaaadd000 r--p 103bb07000 00:05 16601                    /dev/infiniband/uverbs0
2aaaaaadd000-2aaaaaade000 -w-s 00200000 00:05 16601                      /dev/infiniband/uverbs0
2aaaaaade000-2aaaaaadf000 -w-s 00201000 00:05 16601                      /dev/infiniband/uverbs0
2aaaaaadf000-2aaaaaae0000 -w-s 00202000 00:05 16601                      /dev/infiniband/uverbs0
2aaaaaae0000-2aaaaaae1000 -w-s 00203000 00:05 16601                      /dev/infiniband/uverbs0
2aaaaaae1000-2aaaaaae2000 -w-s 00204000 00:05 16601                      /dev/infiniband/uverbs0
2aaaaaae2000-2aaaaaae3000 -w-s 00205000 00:05 16601                      /dev/infiniband/uverbs0
2aaaaaae3000-2aaaaaae4000 -w-s 00206000 00:05 16601                      /dev/infiniband/uverbs0
2aaaaaae4000-2aaaaaae6000 rw-p 00000000 00:00 0 
2aaaaaae6000-2aaaaac6f000 r-xp 00000000 00:29 548891707                  /cm/shared/uniol/software/8.2/GCCcore/8.2.0/lib64/libstdc++.so.6.0.25
2aaaaac6f000-2aaaaac79000 r--p 00188000 00:29 548891707                  /cm/shared/uniol/software/8.2/GCCcore/8.2.0/lib64/libstdc++.so.6.0.25
2aaaaac79000-2aaaaac7d000 rw-p 00192000 00:29 548891707                  /cm/shared/uniol/software/8.2/GCCcore/8.2.0/lib64/libstdc++.so.6.0.25
2aaaaac7d000-2aaaaac82000 rw-p 00000000 00:00 0 
2aaaaac82000-2aaaaac99000 r-xp 00000000 00:29 548891672                  /cm/shared/uniol/software/8.2/GCCcore/8.2.0/lib64/libgcc_s.so.1
2aaaaac99000-2aaaaac9a000 r--p 00016000 00:29 548891672                  /cm/shared/uniol/software/8.2/GCCcore/8.2.0/lib64/libgcc_s.so.1
2aaaaac9a000-2aaaaac9b000 rw-p 00017000 00:29 548891672                  /cm/shared/uniol/software/8.2/GCCcore/8.2.0/lib64/libgcc_s.so.1
2aaaaac9b000-2aaaaaca0000 rw-p 00000000 00:00 0 
2aaaaaca0000-2aaaaaca1000 -w-s 00207000 00:05 16601                      /dev/infiniband/uverbs0
2aaaaaca1000-2aaaaaca2000 rw-p 00000000 00:00 0 
2aaaaaca8000-2aaaaacb0000 rw-s 0fd0f000 00:05 16601                      /dev/infiniband/uverbs0
2aaaaacb0000-2aaaaacb800 r--s 0fb00000 00:05 16601                      /dev/infiniband/uverbs0
2aaaaaad2000-2aaaaaad3000 r--p 103bb07000 00:05 16601                    /dev/infiniband/uverbs0
2aaaaaad3000-2aaaaaad4000 -w-s 00200000 00:05 16601                      /dev/infiniband/uverbs0
2aaaaaad4000-2aaaaaad5000 -w-s 00201000 00:05 16601                      /dev/infiniband/uverbs0
2aaaaaad5000-2aaaaaad6000 -w-s 00202000 00:05 16601                      /dev/infiniband/uverbs0
2aaaaaad6000-2aaaaaad7000 -w-s 00203000 00:05 16601                      /dev/infiniband/uverbs0
2aaaaaad7000-2aaaaaad8000 -w-s 00204000 00:05 16601                      /dev/infiniband/uverbs0
2aaaaaad8000-2aaaaaad9000 -w-s 00205000 00:05 16601                      /dev/infiniband/uverbs0
2aaaaaad9000-2aaaaaada000 -w-s 00206000 00:05 16601                      /dev/infiniband/uverbs0
2aaaaaada000-2aaaaaadb000 -w-s 00207000 00:05 16601                      /dev/infiniband/uverbs0
2aaaaaadb000-2aaaaaadc000 r--s 0fb00000 00:05 16601                      /dev/infiniband/uverbs0
[...]
2aaab29f1000-2aaab2a07000 r-xp 00000000 00:1c 84108                      /usr/lib64/libpthread-2.17.so
2aaab2a07000-2aaab2c07000 ---p 00016000 00:1c 84108                      /usr/lib64/libpthread-2.17.so
2aaab2c07000-2aaab2c08000 r--p 00016000 00:1c 84108                      /usr/lib64/libpthread-2.17.so
2aaab2c/lib64/libc.so.6(__fortify_fail+0x37)[0x2aaab4848b37]
/lib64/libc.so.6(+0x10da5d)[0x2aaab4848a5d]
08000-2aaab2c09000 rw-p 00017000 00:1c 84108                      /usr/lib64/libpthread-2.17.so
2aaab2c09000-2aaab2c0d000 rw-p 00000000 00:00 0 
2aaab2c0d000-2aaab2d0e000 r-xp 00000000 00:1c 86177                      /usr/lib64/libm-2.17.so
2aaab2d0e000-2aaab2f0d000 ---p 00101000 00:1c 86177                      /usr/lib64/libm-2.17.so
2aaab2f0d000-2aaab2f0e000 r--p 00100000 00:1c 86177                      /usr/lib64/libm-2.17.so
2aaab2f0e000-2aaab2f0f000 rw-p 00101000 00:1c 86177                      /usr/lib64/libm-2.17.so
2aaab2f0f000-2aaab2f12000 r-xp 00000000 00:1c 81905                      /usr/lib64/libdl-2.17.so
2aaab2f12000-2aaab3111000 ---p 00003000 00:1c 81905                      /usr/lib64/libdl-2.17.so
2aaab3111000-2aaab3112000 r--p 00002000 00:1c 81905                      /usr/lib64/libdl-2.17.so
2aaab3112000-2aaab3113000 rw-p 00003000 00:1c 81905                      /usr/lib64/libdl-2.17.so
2aaab3113000-2aaab3291000 r-xp 00000000 00:29 548711024                  /cm/shared/uniol/software/773                  /cm/shared/uniol/software/8.2/ifort/2019.1.144/compilers_and_libraries_2019.1.144/linux/compiler/lib/intel64_lin/libiomp5.so
2aaab470d000-2aaab473b000 rw-p 00000000 00:00 0 
2aaab473b000-2aaab48f1000 r-xp 00000000 00:1c 86116                      /usr/lib64/libc-2.17.so
2aaab48f1000-2aaab4af1000 ---p 001b6000 00:1c 86116                      /usr/lib64/libc-2.17.so
2aaab4af1000-2aaab4af5000 r--p 001b6000 00:1c 86116                      /usr/lib64/libc-2.17.so
2aaab4af5000-2aaab4af7000 rw-p 001ba000 00:1c 86116                      /usr/lib64/libc-2.17.so
2aaab4af7000-2aaab4d4c000 rw-p 00000000 00:00 0 
2aaab4d4c000-2aaab4d56000 r-xp 00000000 00:1c 86418                      /usr/lib64/libnuma.so.1
2aaab4d56000-2aaab4f56000 ---p 0000a000 00:1c 86418                      /usr/lib64/libnuma.so.1
2aaab4f56000-2aaab4f57000 r--p 0000a000 00:1c 86418                      /usr/lib64/libnuma.so.1
2aaab4f57000-2aaab4f58000 rw-p 0000b000 00:1c 86418                      /usr/lib64/libnuma.so.1
2aaa8.2/impi/2018.4.274-iccifort-2019a/intel64/lib/libmpifort.so.12.0
2aaab3291000-2aaab3491000 ---p 0017e000 00:29 548711024                  /cm/shared/uniol/software/8.2/impi/2018.4.274-iccifort-2019a/intel64/lib/libmpifort.so.12.0
2aaab3491000-2aaab3498000 rw-p 0017e000 00:29 548711024                  /cm/shared/uniol/software/8.2/impi/2018.4.274-iccifort-2019a/intel64/lib/libmpifort.so.12.0
2aaab3498000-2aaab34bc000 rw-p 00000000 00:00 0 
2aaab34bc000-2aaab3b7a000 r-xp 00000000 00:29 548709644                  /cm/shared/uniol/software/8.2/impi/2018.4.274-iccifort-2019a/intel64/lib/release_mt/libmpi.so.12.0
2aaab3b7a000-2aaab3d79000 ---p 006be000 00:29 548709644                  /cm/shared/uniol/software/8.2/impi/2018.4.274-iccifort-2019a/intel64/lib/release_mt/libmpi.so.12.0
2aaab3d79000-2aaab3db4000 rw-p 006bd000 00:29 548709644                  /cm/shared/uniol/software/8.2/impi/2018.4.274-iccifort-2019a/intel64/lib/release_mt/libmpi.so.12.0
2aaab3db4000-2aaab414b000 rw-p 00000000 00:00 0 
2aaab414b000-2b4f58000-2aaab4f5e000 r-xp 00000000 00:2b 540290316                  /cm/shared/apps/slurm/16.05.8/lib64/libpmi.so.0.0.0
2aaab4f5e000-2aaab515d000 ---p 00006000 00:2b 540290316                  /cm/shared/apps/slurm/16.05.8/lib64/libpmi.so.0.0.0
2aaab515d000-2aaab515e000 r--p 00005000 00:2b 540290316                  /cm/shared/apps/slurm/16.05.8/lib64/libpmi.so.0.0.0
2aaab515e000-2aaab515f000 rw-p 00006000 00:2b 540290316                  /cm/shared/apps/slurm/16.05.8/lib64/libpmi.so.0.0.0
2aaab515f000-2aaab532e000 r-xp 00000000 00:2b 540290320                  /cm/shared/apps/slurm/16.05.8/lib64/libslurm.so.30.0.0
2aaab532e000-2aaab552d000 ---p 001cf000 00:2b 540290320                  /cm/shared/apps/slurm/16.05.8/lib64/libslurm.so.30.0.0
2aaab552d000-2aaab552e000 r--p 001ce000 00:2b 540290320                  /cm/shared/apps/slurm/16.05.8/lib64/libslurm.so.30.0.0
2aaab552e000-2aaab5534000 rw-p 001cf000 00:2b 540290320                  /cm/shared/apps/slurm/16.05.8/lib64/libslurm.so.30.0.0
2aaab5534000-2aa            /cm/shared/uniol/software/8.2/imkl/2019.1.144-iimpi-2019a/compilers_and_libraries_2019.1.144/linux/mkl/lib/intel64_lin/libmkl_scalapack_lp64.so
2aaaab54d000-2aaaab5d1000 rw-p 00000000 00:00 0 
2aaaab5d1000-2aaaabf06000 r-xp 00000000 00:29 549302719                  /cm/shared/uniol/software/8.2/imkl/2019.1.144-iimpi-2019a/compilers_and_libraries_2019.1.144/linux/mkl/lib/intel64_lin/libmkl_intel_lp64.so
2aaaabf06000-2aaaac106000 ---p 00935000 00:29 549302719                  /cm/shared/uniol/software/8.2/imkl/2019.1.144-iimpi-2019a/compilers_and_libraries_2019.1.144/linux/mkl/lib/intel64_lin/libmkl_intel_lp64.so
2aaaac106000-2aaaac107000 r--p 00935000 00:29 549302719                  /cm/shared/uniol/software/8.2/imkl/2019.1.144-iimpi-2019a/compilers_and_libraries_2019.1.144/linux/mkl/lib/intel64_lin/libmkl_intel_lp64.so
2aaaac107000-2aaaac11a000 rw-p 00936000 00:29 549302719                  /cm/shared/uniol/software/8.2/imkl/2019.1.144-iimpi-2019a/compilers_and_libraries_2019.1.144/linux/mkl/lib/ab553a000 rw-p 00000000 00:00 0 
2aaab553a000-2aaab5546000 r-xp 00000000 00:1c 86405                      /usr/lib64/libnss_files-2.17.so
2aaab5546000-2aaab5745000 ---p 0000c000 00:1c 86405                      /usr/lib64/libnss_files-2.17.so
2aaab5745000-2aaab5746000 r--p 0000b000 00:1c 86405                      /usr/lib64/libnss_files-2.17.so
2aaab5746000-2aaab5747000 rw-p 0000c000 00:1c 86405                      /usr/lib64/libnss_files-2.17.so
2aaab5747000-2aaab574d000 rw-p 00000000 00:00 0 
2aaab574d000-2aaab5750000 r-xp 00000000 00:2b 540290334                  /cm/shared/apps/slurm/16.05.8/lib64/slurm/auth_munge.so
2aaab5750000-2aaab594f000 ---p 00003000 00:2b 540290334                  /cm/shared/apps/slurm/16.05.8/lib64/slurm/auth_munge.so
2aaab594f000-2aaab5950000 r--p 00002000 00:2b 540290334                  /cm/shared/apps/slurm/16.05.8/lib64/slurm/auth_munge.so
2aaab5950000-2aaab5951000 rw-p 00003000 00:2b 540290334                  /cm/shared/apps/slurm/16.05.8/lib64/slurm/auth_munge.so
2aaab5intel64_lin/libmkl_intel_lp64.so
2aaaac11a000-2aaaac11f000 rw-p 00000000 00:00 0 
2aaaac11f000-2aaaae1ad000 r-xp 00000000 00:29 549302721                  /cm/shared/uniol/software/8.2/imkl/2019.1.144-iimpi-2019a/compilers_and_libraries_2019.1.144/linux/mkl/lib/intel64_lin/libmkl_intel_thread.so
2aaaae1ad000-2aaaae3ac000 ---p 0208e000 00:29 549302721                  /cm/shared/uniol/software/8.2/imkl/2019.1.144-iimpi-2019a/compilers_and_libraries_2019.1.144/linux/mkl/lib/intel64_lin/libmkl_intel_thread.so
2aaaae3ac000-2aaaae3b0000 r--p 0208d000 00:29 549302721                  /cm/shared/uniol/software/8.2/imkl/2019.1.144-iimpi-2019a/compilers_and_libraries_2019.1.144/linux/mkl/lib/intel64_lin/libmkl_intel_thread.so
2aaaae3b0000-2aaaae61a000 rw-p 02091000 00:29 549302721                  /cm/shared/uniol/software/8.2/imkl/2019.1.144-iimpi-2019a/compilers_and_libraries_2019.1.144/linux/mkl/lib/intel64_lin/libmkl_intel_thread.so
2aaaae61a000-2aaaae623000 rw-p 00000000 00:00 0 
2aaaae623000-2aaab253c000 r-xp 00951000-2aaab595a000 r-xp 00000000 00:1c 86371                      /usr/lib64/libmunge.so.2.0.0
2aaab595a000-2aaab5b59000 ---p 00009000 00:1c 86371                      /usr/lib64/libmunge.so.2.0.0
2aaab5b59000-2aaab5b5a000 r--p 00008000 00:1c 86371                      /usr/lib64/libmunge.so.2.0.0
2aaab5b5a000-2aaab5b5b000 rw-p 00009000 00:1c 86371                      /usr/lib64/libmunge.so.2.0.0
2aaab5b5b000-2aaabc39f000 rw-s 00000000 00:30 73093194                   /dev/shm/Intel_MPI_XPkjpJ (deleted)
2aaabc39f000-2aaabc3aa000 r-xp 00000000 00:1c 86163                      /usr/lib64/libdat2.so.2.0.0
2aaabc3aa000-2aaabc5a9000 ---p 0000b000 00:1c 86163                      /usr/lib64/libdat2.so.2.0.0
2aaabc5a9000-2aaabc5aa000 r--p 0000a000 00:1c 86163                      /usr/lib64/libdat2.so.2.0.0
2aaabc5aa000-2aaabc5ab000 rw-p 0000b000 00:1c 86163                      /usr/lib64/libdat2.so.2.0.0
2aaabc5c0000-2aaabc5e2000 rw-s 0fd12000 00:05 22732                      /dev/infiniband/uverbs0
2aaabc5e2000000000 00:29 549302707                  /cm/shared/uniol/software/8.2/imkl/2019.1.144-iimpi-2019a/compilers_and_libraries_2019.1.144/linux/mkl/lib/intel64_lin/libmkl_core.so
2aaab253c000-2aaab273b000 ---p 03f19000 00:29 549302707                  /cm/shared/uniol/software/8.2/imkl/2019.1.144-iimpi-2019a/compilers_and_libraries_2019.1.144/linux/mkl/lib/intel64_lin/libmkl_core.so
2aaab273b000-2aaab2742000 r--p 03f18000 00:29 549302707                  /cm/shared/uniol/software/8.2/imkl/2019.1.144-iimpi-2019a/compilers_and_libraries_2019.1.144/linux/mkl/lib/intel64_lin/libmkl_core.so
2aaab2742000-2aaab2770000 rw-p 03f1f000 00:29 549302707                  /cm/shared/uniol/software/8.2/imkl/2019.1.144-iimpi-2019a/compilers_and_libraries_2019.1.144/linux/mkl/lib/intel64_lin/libmkl_core.so
2aaab2770000-2aaab27af000 rw-p 00000000 00:00 0 
2aaab27af000-2aaab27f0000 r-xp 00000000 00:29 549302692                  /cm/shared/uniol/software/8.2/imkl/2019.1.144-iimpi-2019a/compilers_and_libraries_2019.1.144/linux/mkl/lib/b4f58000-2aaab4f5e000 r-xp 00000000 00:2b 540290316                  /cm/shared/apps/slurm/16.05.8/lib64/libpmi.so.0.0.0
2aaab4f5e000-2aaab515d000 ---p 00006000 00:2b 540290316                  /cm/shared/apps/slurm/16.05.8/lib64/libpmi.so.0.0.0
2aaab515d000-2aaab515e000 r--p 00005000 00:2b 540290316                  /cm/shared/apps/slurm/16.05.8/lib64/libpmi.so.0.0.0
2aaab515e000-2aaab515f000 rw-p 00006000 00:2b 540290316                  /cm/shared/apps/slurm/16.05.8/lib64/libpmi.so.0.0.0
2aaab515f000-2aaab532e000 r-xp 00000000 00:2b 540290320                  /cm/shared/apps/slurm/16.05.8/lib64/libslurm.so.30.0.0
2aaab532e000-2aaab552d000 ---p 001cf000 00:2b 540290320                  /cm/shared/apps/slurm/16.05.8/lib64/libslurm.so.30.0.0
2aaab552d000-2aaab552e000 r--p 001ce000 00:2b 540290320                  /cm/shared/apps/slurm/16.05.8/lib64/libslurm.so.30.0.0
2aaab552e000-2aaab5534000 rw-p 001cf000 00:2b 540290320                  /cm/shared/apps/slurm/16.05.8/lib64/libslurm.so.30.0.0
2aaab5534000-2aaintel64_lin/libmkl_blacs_intelmpi_lp64.so
2aaab27f0000-2aaab29ef000 ---p 00041000 00:29 549302692                  /cm/shared/uniol/software/8.2/imkl/2019.1.144-iimpi-2019a/compilers_and_libraries_2019.1.144/linux/mkl/lib/intel64_lin/libmkl_blacs_intelmpi_lp64.so
2aaab29ef000-2aaab29f0000 r--p 00040000 00:29 549302692                  /cm/shared/uniol/software/8.2/imkl/2019.1.144-iimpi-2019a/compilers_and_libraries_2019.1.144/linux/mkl/lib/intel64_lin/libmkl_blacs_intelmpi_lp64.so
2aaab29f0000-2aaab29f1000 rw-p 00041000 00:29 549302692                  /cm/shared/uniol/software/8.2/imkl/2019.1.144-iimpi-2019a/compilers_and_libraries_2019.1.144/linux/mkl/lib/intel64_lin/libmkl_blacs_intelmpi_lp64.so
2aaab29f1000-2aaab2a07000 r-xp 00000000 00:1c 84108                      /usr/lib64/libpthread-2.17.so
2aaab2a07000-2aaab2c07000 ---p 00016000 00:1c 84108                      /usr/lib64/libpthread-2.17.so
2aaab2c07000-2aaab2c08000 r--p 00016000 00:1c 84108                      /usr/lib64/libpthread-2.17.so
2aaab2cab553a000 rw-p 00000000 00:00 0 
2aaab553a000-2aaab5546000 r-xp 00000000 00:1c 86405                      /usr/lib64/libnss_files-2.17.so
2aaab5546000-2aaab5745000 ---p 0000c000 00:1c 86405                      /usr/lib64/libnss_files-2.17.so
2aaab5745000-2aaab5746000 r--p 0000b000 00:1c 86405                      /usr/lib64/libnss_files-2.17.so
2aaab5746000-2aaab5747000 rw-p 0000c000 00:1c 86405                      /usr/lib64/libnss_files-2.17.so
2aaab5747000-2aaab574d000 rw-p 00000000 00:00 0 
2aaab574d000-2aaab5750000 r-xp 00000000 00:2b 540290334                  /cm/shared/apps/slurm/16.05.8/lib64/slurm/auth_munge.so
2aaab5750000-2aaab594f000 ---p 00003000 00:2b 540290334                  /cm/shared/apps/slurm/16.05.8/lib64/slurm/auth_munge.so
2aaab594f000-2aaab5950000 r--p 00002000 00:2b 540290334                  /cm/shared/apps/slurm/16.05.8/lib64/slurm/auth_munge.so
2aaab5950000-2aaab5951000 rw-p 00003000 00:2b 540290334                  /cm/shared/apps/slurm/16.05.8/lib64/slurm/auth_munge.so
2aaab5000000 00:29 549302707                  /cm/shared/uniol/software/8.2/imkl/2019.1.144-iimpi-2019a/compilers_and_libraries_2019.1.144/linux/mkl/lib/intel64_lin/libmkl_core.so
2aaab253c000-2aaab273b000 ---p 03f19000 00:29 549302707                  /cm/shared/uniol/software/8.2/imkl/2019.1.144-iimpi-2019a/compilers_and_libraries_2019.1.144/linux/mkl/lib/intel64_lin/libmkl_core.so
2aaab273b000-2aaab2742000 r--p 03f18000 00:29 549302707                  /cm/shared/uniol/software/8.2/imkl/2019.1.144-iimpi-2019a/compilers_and_libraries_2019.1.144/linux/mkl/lib/intel64_lin/libmkl_core.so
2aaab2742000-2aaab2770000 rw-p 03f1f000 00:29 549302707                  /cm/shared/uniol/software/8.2/imkl/2019.1.144-iimpi-2019a/compilers_and_libraries_2019.1.144/linux/mkl/lib/intel64_lin/libmkl_core.so
2aaab2770000-2aaab27af000 rw-p 00000000 00:00 0 
2aaab27af000-2aaab27f0000 r-xp 00000000 00:29 549302692                  /cm/shared/uniol/software/8.2/imkl/2019.1.144-iimpi-2019a/compilers_and_libraries_2019.1.144/linux/mkl/lib/951000-2aaab595a000 r-xp 00000000 00:1c 86371                      /usr/lib64/libmunge.so.2.0.0
2aaab595a000-2aaab5b59000 ---p 00009000 00:1c 86371                      /usr/lib64/libmunge.so.2.0.0
2aaab5b59000-2aaab5b5a000 r--p 00008000 00:1c 86371                      /usr/lib64/libmunge.so.2.0.0
2aaab5b5a000-2aaab5b5b000 rw-p 00009000 00:1c 86371                      /usr/lib64/libmunge.so.2.0.0
2aaab5b5b000-2aaabc39f000 rw-s 00000000 00:30 73093194                   /dev/shm/Intel_MPI_XPkjpJ (deleted)
2aaabc39f000-2aaabc3aa000 r-xp 00000000 00:1c 86163                      /usr/lib64/libdat2.so.2.0.0
2aaabc3aa000-2aaabc5a9000 ---p 0000b000 00:1c 86163                      /usr/lib64/libdat2.so.2.0.0
2aaabc5a9000-2aaabc5aa000 r--p 0000a000 00:1c 86163                      /usr/lib64/libdat2.so.2.0.0
2aaabc5aa000-2aaabc5ab000 rw-p 0000b000 00:1c 86163                      /usr/lib64/libdat2.so.2.0.0
2aaabc5c0000-2aaabc5e2000 rw-s 0fd12000 00:05 22732                      /dev/infiniband/uverbs0
2aaabc5e2000intel64_lin/libmkl_blacs_intelmpi_lp64.so
2aaab27f0000-2aaab29ef000 ---p 00041000 00:29 549302692                  /cm/shared/uniol/software/8.2/imkl/2019.1.144-iimpi-2019a/compilers_and_libraries_2019.1.144/linux/mkl/lib/intel64_lin/libmkl_blacs_intelmpi_lp64.so
2aaab29ef000-2aaab29f0000 r--p 00040000 00:29 549302692                  /cm/shared/uniol/software/8.2/imkl/2019.1.144-iimpi-2019a/compilers_and_libraries_2019.1.144/linux/mkl/lib/intel64_lin/libmkl_blacs_intelmpi_lp64.so
2aaab29f0000-2aaab29f1000 rw-p 00041000 00:29 549302692                  /cm/shared/uniol/software/8.2/imkl/2019.1.144-iimpi-2019a/compilers_and_libraries_2019.1.144/linux/mkl/lib/intel64_lin/libmkl_blacs_intelmpi_lp64.so
2aaab29f1000-2aaab2a07000 r-xp 00000000 00:1c 84108                      /usr/lib64/libpthread-2.17.so
2aaab2a07000-2aaab2c07000 ---p 00016000 00:1c 84108                      /usr/lib64/libpthread-2.17.so
2aaab2c07000-2aaab2c08000 r--p 00016000 00:1c 84108                      /usr/lib64/libpthread-2.17.so
2aaab2c-2aaabc643000 rw-p 00000000 00:00 0 
2aaabc660000-2aaabc680000 rw-s 0fd11000 00:05 22732                      /dev/infiniband/uverbs0
2aaabc680000-2aaabc6bc000 rw-p 00000000 00:00 0 
2aaabc6bc000-2aaabc6ef000 rw-s 00000000 00:30 73070065                   /dev/shm/Intel_MPI_olrCiC (deleted)
2aaabc700000-2aaabc741000 rw-s 0fd13000 00:05 22732                      /dev/infiniband/uverbs0
2aaabc741000-2aaabc761000 rw-p 00000000 00:00 0 
2aaabc780000-2aaabc7c1000 rw-s 0fd13000 00:05 22732                      /dev/infiniband/uverbs0
2aaabc7d0000-2aaabc7e8000 r-xp 00000000 00:1c 86297                      /usr/lib64/libibverbs.so.1.0.0
2aaabc7e8000-2aaabc9e7000 ---p 00018000 00:1c 86297                      /usr/lib64/libibverbs.so.1.0.0
2aaabc9e7000-2aaabc9e8000 r--p 00017000 00:1c 86297                      /usr/lib64/libibverbs.so.1.0.0
2aaabc9e8000-2aaabc9e9000 rw-p 00018000 00:1c 86297                      /usr/lib64/libibverbs.so.1.0.0
2aaabc9e9000-2aaabca4d000 r-xp 00000000 00:1c 86392                      08000-2aaab2c09000 rw-p 00017000 00:1c 84108                      /usr/lib64/libpthread-2.17.so
2aaab2c09000-2aaab2c0d000 rw-p 00000000 00:00 0 
2aaab2c0d000-2aaab2d0e000 r-xp 00000000 00:1c 86177                      /usr/lib64/libm-2.17.so
2aaab2d0e000-2aaab2f0d000 ---p 00101000 00:1c 86177                      /usr/lib64/libm-2.17.so
2aaab2f0d000-2aaab2f0e000 r--p 00100000 00:1c 86177                      /usr/lib64/libm-2.17.so
2aaab2f0e000-2aaab2f0f000 rw-p 00101000 00:1c 86177                      /usr/lib64/libm-2.17.so
2aaab2f0f000-2aaab2f12000 r-xp 00000000 00:1c 81905                      /usr/lib64/libdl-2.17.so
2aaab2f12000-2aaab3111000 ---p 00003000 00:1c 81905                      /usr/lib64/libdl-2.17.so
2aaab3111000-2aaab3112000 r--p 00002000 00:1c 81905                      /usr/lib64/libdl-2.17.so
2aaab3112000-2aaab3113000 rw-p 00003000 00:1c 81905                      /usr/lib64/libdl-2.17.so
2aaab3113000-2aaab3291000 r-xp 00000000 00:29 548711024                  /cm/shared/uniol/software/08000-2aaab2c09000 rw-p 00017000 00:1c 86484                      /usr/lib64/libpthread-2.17.so
2aaab2c09000-2aaab2c0d000 rw-p 00000000 00:00 0 
2aaab2c0d000-2aaab2d0e000 r-xp 00000000 00:1c 86351                      /usr/lib64/libm-2.17.so
2aaab2d0e000-2aaab2f0d000 ---p 00101000 00:1c 86351                      /usr/lib64/libm-2.17.so
2aaab2f0d000-2aaab2f0e000 r--p 00100000 00:1c 86351                      /usr/lib64/libm-2.17.so
2aaab2f0e000-2aaab2f0f000 rw-p 00101000 00:1c 86351                      /usr/lib64/libm-2.17.so
2aaab2f0f000-2aaab2f12000 r-xp 00000000 00:1c 86174                      /usr/lib64/libdl-2.17.so
2aaab2f12000-2aaab3111000 ---p 00003000 00:1c 86174                      /usr/lib64/libdl-2.17.so
2aaab3111000-2aaab3112000 r--p 00002000 00:1c 86174                      /usr/lib64/libdl-2.17.so
2aaab3112000-2aaab3113000 rw-p 00003000 00:1c 86174                      /usr/lib64/libdl-2.17.so
2aaab3113000-2aaab3291000 r-xp 00000000 00:2b 548711024                  /cm/shared/uniol/software/8.2/impi/2018.4.274-iccifort-2019a/intel64/lib/libmpifort.so.12.0
2aaab3291000-2aaab3491000 ---p 0017e000 00:29 548711024                  /cm/shared/uniol/software/8.2/impi/2018.4.274-iccifort-2019a/intel64/lib/libmpifort.so.12.0
2aaab3491000-2aaab3498000 rw-p 0017e000 00:29 548711024                  /cm/shared/uniol/software/8.2/impi/2018.4.274-iccifort-2019a/intel64/lib/libmpifort.so.12.0
2aaab3498000-2aaab34bc000 rw-p 00000000 00:00 0 
2aaab34bc000-2aaab3b7a000 r-xp 00000000 00:29 548709644                  /cm/shared/uniol/software/8.2/impi/2018.4.274-iccifort-2019a/intel64/lib/release_mt/libmpi.so.12.0
2aaab3b7a000-2aaab3d79000 ---p 006be000 00:29 548709644                  /cm/shared/uniol/software/8.2/impi/2018.4.274-iccifort-2019a/intel64/lib/release_mt/libmpi.so.12.0
2aaab3d79000-2aaab3db4000 rw-p 006bd000 00:29 548709644                  /cm/shared/uniol/software/8.2/impi/2018.4.274-iccifort-2019a/intel64/lib/release_mt/libmpi.so.12.0
2aaab3db4000-2aaab414b000 rw-p 00000000 00:00 0 
