 DBCSR| CPU Multiplication driver                                           XSMM (U)
 DBCSR| Multrec recursion limit                                              512 (U)
 DBCSR| Multiplication stack size                                           1000 (D)
 DBCSR| Maximum elements for images                                    UNLIMITED (U)
 DBCSR| Multiplicative factor virtual images                                   1 (U)
 DBCSR| Use multiplication densification                                       T (D)
 DBCSR| Multiplication size stacks                                             3 (U)
 DBCSR| Use memory pool for CPU allocation                                     F (U)
 DBCSR| Number of 3D layers                                               SINGLE (U)
 DBCSR| Use MPI memory allocation                                              F (U)
 DBCSR| Use RMA algorithm                                                      F (U)
 DBCSR| Use Communication thread                                               T (U)
 DBCSR| Communication thread load                                             83 (D)
 DBCSR| MPI: My process id                                                     0
 DBCSR| MPI: Number of processes                                              48
 DBCSR| OMP: Current number of threads                                         2
 DBCSR| OMP: Max number of threads                                             2
 DBCSR| Split modifier for TAS multiplication algorithm                  1.0E+00 (U)


  **** **** ******  **  PROGRAM STARTED AT               2025-02-11 07:47:21.876
 ***** ** ***  *** **   PROGRAM STARTED ON                                 c0337
 **    ****   ******    PROGRAM STARTED BY                                u12591
 ***** **    ** ** **   PROGRAM PROCESS ID                               1479755
  **** **  *******  **  PROGRAM STARTED IN /mnt/lustre-grete/usr/u12591/cp2k_par
                                           ser_tests/cp2k-2025.1/cell_opt_low

 CP2K| version string:                                       CP2K version 2025.1
 CP2K| source code revision number:                                  git:9635df4
 CP2K| cp2kflags: omp libint fftw3 libxc libgrpp parallel scalapack mpi_f08 xsmm
 CP2K|             spglib libdftd4 libvori libbqb hdf5
 CP2K| is freely available from                            https://www.cp2k.org/
 CP2K| Program compiled at                          Tue Jan  7 11:11:50 CET 2025
 CP2K| Program compiled on                                              glogin11
 CP2K| Program compiled for                                                local
 CP2K| Data directory path    /mnt/lustre-grete/usr/u12591/software/cp2k/cp2k-20
 CP2K| Input file name                                                 aiida.inp

 GLOBAL| Force Environment number                                              1
 GLOBAL| Basis set file name                                        BASIS_MOLOPT
 GLOBAL| Potential file name                                      GTH_POTENTIALS
 GLOBAL| MM Potential file name                                     MM_POTENTIAL
 GLOBAL| Coordinate file name                                      __STD_INPUT__
 GLOBAL| Method name                                                        CP2K
 GLOBAL| Project name                                                      aiida
 GLOBAL| Run type                                                       CELL_OPT
 GLOBAL| FFT library                                                       FFTW3
 GLOBAL| Diagonalization library                                       ScaLAPACK
 GLOBAL| DGEMM library                                                      BLAS
 GLOBAL| Orthonormality check for eigenvectors                          DISABLED
 GLOBAL| Matrix multiplication library                                 ScaLAPACK
 GLOBAL| All-to-all communication in single precision                          F
 GLOBAL| FFTs using library dependent lengths                                  F
 GLOBAL| Grid backend                                                       AUTO
 GLOBAL| Global print level                                                  LOW
 GLOBAL| MPI I/O enabled                                                       T
 GLOBAL| Total number of message passing processes                            48
 GLOBAL| Number of threads for this process                                    2
 GLOBAL| This output is from process                                           0
 GLOBAL| OpenMP stack size per thread (OMP_STACKSIZE)                    default
 GLOBAL| CPU model name                           Intel(R) Xeon(R) Platinum 8468
 GLOBAL| CPUID                                                              1003

 MEMORY| system memory details [Kb]
 MEMORY|                        rank 0           min           max       average
 MEMORY| MemTotal            527928724     527928724     527928724     527928724
 MEMORY| MemFree             513443976     513443640     513443976     513443815
 MEMORY| Buffers                 14388         14388         14388         14388
 MEMORY| Cached                4381008       4381008       4381008       4381008
 MEMORY| Slab                  2339496       2339496       2339496       2339496
 MEMORY| SReclaimable           305820        305820        305820        305820
 MEMORY| MemLikelyFree       518145192     518144856     518145192     518145031


 GENERATE|  Preliminary Number of Bonds generated:                             0
 GENERATE|  Achieved consistency in connectivity generation.

 *******************************************************************************
 *******************************************************************************
 **                                                                           **
 **     #####                         ##              ##                      **
 **    ##   ##            ##          ##              ##                      **
 **   ##     ##                       ##            ######                    **
 **   ##     ##  ##   ##  ##   #####  ##  ##   ####   ##    #####    #####    **
 **   ##     ##  ##   ##  ##  ##      ## ##   ##      ##   ##   ##  ##   ##   **
 **   ##  ## ##  ##   ##  ##  ##      ####     ###    ##   ######   ######    **
 **    ##  ###   ##   ##  ##  ##      ## ##      ##   ##   ##       ##        **
 **     #######   #####   ##   #####  ##  ##  ####    ##    #####   ##        **
 **           ##                                                    ##        **
 **                                                                           **
 **                                                ... make the atoms dance   **
 **                                                                           **
 **            Copyright (C) by CP2K developers group (2000-2025)             **
 **                      J. Chem. Phys. 152, 194103 (2020)                    **
 **                                                                           **
 *******************************************************************************


 TOTAL NUMBERS AND MAXIMUM NUMBERS

  Total number of            - Atomic kinds:                                   2
                             - Atoms:                                          4
                             - Shell sets:                                     4
                             - Shells:                                        23
                             - Primitive Cartesian functions:                 23
                             - Cartesian basis functions:                     59
                             - Spherical basis functions:                     55

  Maximum angular momentum of- Orbital basis functions:                        2
                             - Local part of the GTH pseudopotential:          2
                             - Non-local part of the GTH pseudopotential:      4


 SCF PARAMETERS         Density guess:                                   RESTART
                        --------------------------------------------------------
                        max_scf:                                             150
                        max_scf_history:                                       0
                        max_diis:                                              4
                        --------------------------------------------------------
                        eps_scf:                                        1.00E-04
                        eps_scf_history:                                0.00E+00
                        eps_diis:                                       1.00E-01
                        eps_eigval:                                     1.00E-05
                        --------------------------------------------------------
                        level_shift [a.u.]:                             0.000000
                        --------------------------------------------------------
                        Mixing method:                            BROYDEN_MIXING
                                                charge density mixing in g-space
                        --------------------------------------------------------
                        No outer SCF

 CELL_OPT| Pressure tolerance [bar]:                                       500.0
 CELL_OPT| Keep angles between the cell vectors:                              NO
 CELL_OPT| Keep cell symmetry:                                                NO
 CELL_OPT| Constraint:                                                      NONE

 BFGS| Use rational function optimization for step estimation:                NO
 BFGS| Use model Hessian for initial guess:                                   NO
 BFGS| Restart Hessian:                                                       NO
 BFGS| Trust radius:                                                       0.472

 *******************************************************************************
 ***                     STARTING   CELL   OPTIMIZATION                      ***
 ***                                   BFGS                                  ***
 *******************************************************************************

 CELL| Volume [angstrom^3]:                                           204.400073
 CELL| Vector a [angstrom]:       0.000     4.675     4.675   |a| =     6.611987
 CELL| Vector b [angstrom]:       4.675     0.000     4.675   |b| =     6.611987
 CELL| Vector c [angstrom]:       4.675     4.675     0.000   |c| =     6.611987
 CELL| Angle (b,c), alpha [degree]:                                    60.000000
 CELL| Angle (a,c), beta  [degree]:                                    60.000000
 CELL| Angle (a,b), gamma [degree]:                                    60.000000
 CELL| Numerically orthorhombic:                                              NO
 CELL| Periodicity                                                           XYZ

 Number of electrons:                                                         32
 Number of occupied orbitals:                                                 16
 Number of molecular orbitals:                                                16

 Number of orbital functions:                                                 55
 Number of independent orbital functions:                                     55

 Extrapolation method: initial_guess

 *** WARNING in qs_initial_guess.F:303 :: User requested to restart the    ***
 *** wavefunction from the file named: aiida-RESTART.kp. This file does    ***
 *** not exist. Please check the existence of the file or change properly  ***
 *** the value of the keyword WFN_RESTART_FILE_NAME. Calculation continues ***
 *** using ATOMIC GUESS.                                                   ***



 SCF WAVEFUNCTION OPTIMIZATION

  Step     Update method      Time    Convergence         Total energy    Change
  ------------------------------------------------------------------------------
     1 NoMix/Diag. 0.30E+00    0.5     0.67470816       -66.3586464021 -6.64E+01
     2 Broy./Diag. 0.30E+00    0.8     0.17765612       -66.1737377845  1.85E-01
     3 Broy./Diag. 0.30E+00    0.8     0.29376425       -66.1121755526  6.16E-02
     4 Broy./Diag. 0.30E+00    0.8     0.10022825       -66.0395946182  7.26E-02
     5 Broy./Diag. 0.30E+00    0.8     0.07077783       -65.9773498773  6.22E-02
     6 Broy./Diag. 0.30E+00    0.8     0.00845569       -65.9800779856 -2.73E-03
     7 Broy./Diag. 0.30E+00    0.8     0.00546878       -65.9867019618 -6.62E-03
     8 Broy./Diag. 0.30E+00    0.8     0.00031147       -65.9877040050 -1.00E-03
     9 Broy./Diag. 0.30E+00    0.8     0.00025044       -65.9871575575  5.46E-04
    10 Broy./Diag. 0.30E+00    0.8     0.00000660       -65.9869786519  1.79E-04

  *** SCF run converged in    10 steps ***


  Electronic density on regular grids:        -32.0000000000        0.0000000000
  Core density on regular grids:               31.9999999999       -0.0000000001
  Total charge density on r-space grids:       -0.0000000001
  Total charge density g-space grids:          -0.0000000001

  Overlap energy of the core charge distribution:               0.00000000000000
  Self energy of the core charge distribution:               -138.89582544120611
  Core Hamiltonian energy:                                     27.22259606255082
  Hartree energy:                                              56.70278673160818
  Exchange-correlation energy:                                -11.01653600485461

  Total energy:                                               -65.98697865190172

 ENERGY| Total FORCE_EVAL ( QS ) energy [hartree]            -65.986978589830699

 OPT| **************************************************************************
 OPT| Step number                                                              0
 OPT| Optimization method                                                   BFGS
 OPT| Total energy [hartree]                                      -65.9869785898
 OPT| Internal pressure [bar]                                    1726.2302544350
 OPT| Used time [s]                                                        9.432
 OPT| **************************************************************************
 OPT| Estimated peak process memory [MiB]                                    287

 --------------------------
 OPTIMIZATION STEP:      1
 --------------------------

 CELL| Volume [angstrom^3]:                                           204.429574
 CELL| Vector a [angstrom]:      -0.000     4.675     4.675   |a| =     6.611987
 CELL| Vector b [angstrom]:       4.676    -0.000     4.675   |b| =     6.612149
 CELL| Vector c [angstrom]:       4.676     4.676    -0.000   |c| =     6.612310
 CELL| Angle (b,c), alpha [degree]:                                    60.002327
 CELL| Angle (a,c), beta  [degree]:                                    60.003135
 CELL| Angle (a,b), gamma [degree]:                                    60.003942
 CELL| Numerically orthorhombic:                                              NO
 CELL| Periodicity                                                           XYZ

 Number of electrons:                                                         32
 Number of occupied orbitals:                                                 16
 Number of molecular orbitals:                                                16

 Number of orbital functions:                                                 55
 Number of independent orbital functions:                                     55

 Extrapolation method: initial_guess


 SCF WAVEFUNCTION OPTIMIZATION

  Step     Update method      Time    Convergence         Total energy    Change
  ------------------------------------------------------------------------------
     1 Broy./Diag. 0.30E+00    0.5     1.19712921       -66.3314320919 -6.63E+01
     2 Broy./Diag. 0.30E+00    0.8     0.80566250       -66.7251338290 -3.94E-01
     3 Broy./Diag. 0.30E+00    0.8     0.36870444       -66.3479624275  3.77E-01
     4 Broy./Diag. 0.30E+00    0.8     0.05881625       -65.9948687878  3.53E-01
     5 Broy./Diag. 0.30E+00    0.8     0.03747377       -65.9335139964  6.14E-02
     6 Broy./Diag. 0.30E+00    0.8     0.00852769       -65.9706927900 -3.72E-02
     7 Broy./Diag. 0.30E+00    0.8     0.00187429       -65.9859139236 -1.52E-02
     8 Broy./Diag. 0.30E+00    0.8     0.00060147       -65.9874722288 -1.56E-03
     9 Broy./Diag. 0.30E+00    0.8     0.00007320       -65.9872438970  2.28E-04

  *** SCF run converged in     9 steps ***


  Electronic density on regular grids:        -31.9999960383        0.0000039617
  Core density on regular grids:               31.9999999999       -0.0000000001
  Total charge density on r-space grids:        0.0000039616
  Total charge density g-space grids:           0.0000039616

  Overlap energy of the core charge distribution:               0.00000000000000
  Self energy of the core charge distribution:               -138.89582544120611
  Core Hamiltonian energy:                                     27.22232634614471
  Hartree energy:                                              56.70271994046933
  Exchange-correlation energy:                                -11.01646474237001

  Total energy:                                               -65.98724389696208

 ENERGY| Total FORCE_EVAL ( QS ) energy [hartree]            -65.986979736824793

 OPT| **************************************************************************
 OPT| Step number                                                              1
 OPT| Optimization method                                                   BFGS
 OPT| Total energy [hartree]                                      -65.9869797368
 OPT| Internal pressure [bar]                                    1711.1943320703
 OPT| Effective energy change [hartree]                            -0.0000011470
 OPT| Predicted energy change [hartree]                            -0.0000005434
 OPT| Scaling factor                                                0.0000000000
 OPT| Step size                                                     0.0004314776
 OPT| Trust radius                                                  0.4724315332
 OPT| Decrease in energy                                                     YES
 OPT| Used time [s]                                                        8.576
 OPT|
 OPT| Maximum step size                                             0.0004314776
 OPT| Convergence limit for maximum step size                       0.0500000000
 OPT| Maximum step size is converged                                         YES
 OPT|
 OPT| RMS step size                                                 0.0002457095
 OPT| Convergence limit for RMS step size                           0.0500000000
 OPT| RMS step size is converged                                             YES
 OPT|
 OPT| Maximum gradient                                              0.0004281649
 OPT| Convergence limit for maximum gradient                        0.0500000000
 OPT| Maximum gradient is converged                                          YES
 OPT|
 OPT| RMS gradient                                                  0.0002425480
 OPT| Convergence limit for RMS gradient                            0.0500000000
 OPT| RMS gradient is converged                                              YES
 OPT|
 OPT| Pressure deviation [bar]                                   1611.1943320703
 OPT| Pressure tolerance [bar]                                    500.0000000000
 OPT| Pressure is converged                                                   NO
 OPT| **************************************************************************
 OPT| Estimated peak process memory after this step [MiB]                    287

 --------------------------
 OPTIMIZATION STEP:      2
 --------------------------

 CELL| Volume [angstrom^3]:                                           206.699471
 CELL| Vector a [angstrom]:      -0.017     4.675     4.675   |a| =     6.612010
 CELL| Vector b [angstrom]:       4.693    -0.017     4.675   |b| =     6.624642
 CELL| Vector c [angstrom]:       4.693     4.693    -0.017   |c| =     6.637144
 CELL| Angle (b,c), alpha [degree]:                                    60.179071
 CELL| Angle (a,c), beta  [degree]:                                    60.242592
 CELL| Angle (a,b), gamma [degree]:                                    60.306061
 CELL| Numerically orthorhombic:                                              NO
 CELL| Periodicity                                                           XYZ

 Number of electrons:                                                         32
 Number of occupied orbitals:                                                 16
 Number of molecular orbitals:                                                16

 Number of orbital functions:                                                 55
 Number of independent orbital functions:                                     55

 Extrapolation method: initial_guess


 SCF WAVEFUNCTION OPTIMIZATION

  Step     Update method      Time    Convergence         Total energy    Change
  ------------------------------------------------------------------------------
     1 Broy./Diag. 0.30E+00    0.5     1.70741142       -66.3309110229 -6.63E+01
     2 Broy./Diag. 0.30E+00    0.8     1.19106620       -66.7435580418 -4.13E-01
     3 Broy./Diag. 0.30E+00    0.8     0.48268307       -66.3884674671  3.55E-01
     4 Broy./Diag. 0.30E+00    0.8     0.08102783       -66.0019247315  3.87E-01
     5 Broy./Diag. 0.30E+00    0.8     0.04746126       -65.9256512369  7.63E-02
     6 Broy./Diag. 0.30E+00    0.8     0.00923675       -65.9653035702 -3.97E-02
     7 Broy./Diag. 0.30E+00    0.8     0.00325875       -65.9846545260 -1.94E-02
     8 Broy./Diag. 0.30E+00    0.8     0.00069406       -65.9876904130 -3.04E-03
     9 Broy./Diag. 0.30E+00    0.8     0.00008819       -65.9875530434  1.37E-04

  *** SCF run converged in     9 steps ***


  Electronic density on regular grids:        -31.9999923701        0.0000076299
  Core density on regular grids:               31.9999999999       -0.0000000001
  Total charge density on r-space grids:        0.0000076298
  Total charge density g-space grids:           0.0000076298

  Overlap energy of the core charge distribution:               0.00000000000000
  Self energy of the core charge distribution:               -138.89582544120611
  Core Hamiltonian energy:                                     27.20989506530774
  Hartree energy:                                              56.70899251450884
  Exchange-correlation energy:                                -11.01061518203428

  Total energy:                                               -65.98755304342382

 ENERGY| Total FORCE_EVAL ( QS ) energy [hartree]            -65.987027806081215

 OPT| **************************************************************************
 OPT| Step number                                                              2
 OPT| Optimization method                                                   BFGS
 OPT| Total energy [hartree]                                      -65.9870278061
 OPT| Internal pressure [bar]                                     616.1166344767
 OPT| Effective energy change [hartree]                            -0.0000480693
 OPT| Predicted energy change [hartree]                            -0.0000411725
 OPT| Scaling factor                                                0.0000000000
 OPT| Step size                                                     0.0332949152
 OPT| Trust radius                                                  0.4724315332
 OPT| Decrease in energy                                                     YES
 OPT| Used time [s]                                                        8.514
 OPT|
 OPT| Maximum step size                                             0.0332949152
 OPT| Convergence limit for maximum step size                       0.0500000000
 OPT| Maximum step size is converged                                         YES
 OPT|
 OPT| RMS step size                                                 0.0188611045
 OPT| Convergence limit for RMS step size                           0.0500000000
 OPT| RMS step size is converged                                             YES
 OPT|
 OPT| Maximum gradient                                              0.0001737719
 OPT| Convergence limit for maximum gradient                        0.0500000000
 OPT| Maximum gradient is converged                                          YES
 OPT|
 OPT| RMS gradient                                                  0.0000696563
 OPT| Convergence limit for RMS gradient                            0.0500000000
 OPT| RMS gradient is converged                                              YES
 OPT|
 OPT| Pressure deviation [bar]                                    516.1166344767
 OPT| Pressure tolerance [bar]                                    500.0000000000
 OPT| Pressure is converged                                                   NO
 OPT| **************************************************************************
 OPT| Estimated peak process memory after this step [MiB]                    288

 --------------------------
 OPTIMIZATION STEP:      3
 --------------------------

 CELL| Volume [angstrom^3]:                                           206.820486
 CELL| Vector a [angstrom]:      -0.018     4.675     4.675   |a| =     6.612012
 CELL| Vector b [angstrom]:       4.694    -0.018     4.675   |b| =     6.625370
 CELL| Vector c [angstrom]:       4.694     4.694    -0.018   |c| =     6.638497
 CELL| Angle (b,c), alpha [degree]:                                    60.187282
 CELL| Angle (a,c), beta  [degree]:                                    60.254747
 CELL| Angle (a,b), gamma [degree]:                                    60.321932
 CELL| Numerically orthorhombic:                                              NO
 CELL| Periodicity                                                           XYZ

 Number of electrons:                                                         32
 Number of occupied orbitals:                                                 16
 Number of molecular orbitals:                                                16

 Number of orbital functions:                                                 55
 Number of independent orbital functions:                                     55

 Extrapolation method: initial_guess


 SCF WAVEFUNCTION OPTIMIZATION

  Step     Update method      Time    Convergence         Total energy    Change
  ------------------------------------------------------------------------------
     1 Broy./Diag. 0.30E+00    0.5     0.00071026       -65.9869817188 -6.60E+01
     2 Broy./Diag. 0.30E+00    0.8     0.00033843       -65.9876394199 -6.58E-04
     3 Broy./Diag. 0.30E+00    0.8     0.00027123       -65.9872825117  3.57E-04
     4 Broy./Diag. 0.30E+00    0.8     0.00006104       -65.9870419522  2.41E-04

  *** SCF run converged in     4 steps ***


  Electronic density on regular grids:        -32.0000234571       -0.0000234571
  Core density on regular grids:               31.9999999999       -0.0000000001
  Total charge density on r-space grids:       -0.0000234572
  Total charge density g-space grids:          -0.0000234572

  Overlap energy of the core charge distribution:               0.00000000000000
  Self energy of the core charge distribution:               -138.89582544120611
  Core Hamiltonian energy:                                     27.20940153731643
  Hartree energy:                                              56.70966879405445
  Exchange-correlation energy:                                -11.01028684237343

  Total energy:                                               -65.98704195220866

 ENERGY| Total FORCE_EVAL ( QS ) energy [hartree]            -65.987028292158300

 OPT| **************************************************************************
 OPT| Step number                                                              3
 OPT| Optimization method                                                   BFGS
 OPT| Total energy [hartree]                                      -65.9870282922
 OPT| Internal pressure [bar]                                     560.2399236487
 OPT| Effective energy change [hartree]                            -0.0000004861
 OPT| Predicted energy change [hartree]                            -0.0000001534
 OPT| Scaling factor                                                0.0000000000
 OPT| Step size                                                     0.0019358890
 OPT| Trust radius                                                  0.4724315332
 OPT| Decrease in energy                                                     YES
 OPT| Used time [s]                                                        4.720
 OPT|
 OPT| Maximum step size                                             0.0019358890
 OPT| Convergence limit for maximum step size                       0.0500000000
 OPT| Maximum step size is converged                                         YES
 OPT|
 OPT| RMS step size                                                 0.0010084268
 OPT| Convergence limit for RMS step size                           0.0500000000
 OPT| RMS step size is converged                                             YES
 OPT|
 OPT| Maximum gradient                                              0.0001604758
 OPT| Convergence limit for maximum gradient                        0.0500000000
 OPT| Maximum gradient is converged                                          YES
 OPT|
 OPT| RMS gradient                                                  0.0000714936
 OPT| Convergence limit for RMS gradient                            0.0500000000
 OPT| RMS gradient is converged                                              YES
 OPT|
 OPT| Pressure deviation [bar]                                    460.2399236487
 OPT| Pressure tolerance [bar]                                    500.0000000000
 OPT| Pressure is converged                                                  YES
 OPT| **************************************************************************
 OPT| Estimated peak process memory after this step [MiB]                    288

 *******************************************************************************
 ***                    GEOMETRY OPTIMIZATION COMPLETED                      ***
 *******************************************************************************

                    Reevaluating energy at the minimum

 CELL| Volume [angstrom^3]:                                           206.820486
 CELL| Vector a [angstrom]:      -0.018     4.675     4.675   |a| =     6.612012
 CELL| Vector b [angstrom]:       4.694    -0.018     4.675   |b| =     6.625370
 CELL| Vector c [angstrom]:       4.694     4.694    -0.018   |c| =     6.638497
 CELL| Angle (b,c), alpha [degree]:                                    60.187282
 CELL| Angle (a,c), beta  [degree]:                                    60.254747
 CELL| Angle (a,b), gamma [degree]:                                    60.321932
 CELL| Numerically orthorhombic:                                              NO
 CELL| Periodicity                                                           XYZ

 Number of electrons:                                                         32
 Number of occupied orbitals:                                                 16
 Number of molecular orbitals:                                                16

 Number of orbital functions:                                                 55
 Number of independent orbital functions:                                     55

 Extrapolation method: initial_guess


 SCF WAVEFUNCTION OPTIMIZATION

  Step     Update method      Time    Convergence         Total energy    Change
  ------------------------------------------------------------------------------
     1 Broy./Diag. 0.30E+00    0.5     0.00000953       -65.9870282922 -6.60E+01

  *** SCF run converged in     1 steps ***


  Electronic density on regular grids:        -32.0000000000        0.0000000000
  Core density on regular grids:               31.9999999999       -0.0000000001
  Total charge density on r-space grids:       -0.0000000001
  Total charge density g-space grids:          -0.0000000001

  Overlap energy of the core charge distribution:               0.00000000000000
  Self energy of the core charge distribution:               -138.89582544120611
  Core Hamiltonian energy:                                     27.20945250428442
  Hartree energy:                                              56.70963014059908
  Exchange-correlation energy:                                -11.01028549583566

  Total energy:                                               -65.98702829215827

 ENERGY| Total FORCE_EVAL ( QS ) energy [hartree]            -65.987028292158271

 -------------------------------------------------------------------------------
 -                                                                             -
 -                                DBCSR STATISTICS                             -
 -                                                                             -
 -------------------------------------------------------------------------------
 COUNTER                                    TOTAL       BLAS       SMM       ACC
 flops inhomo. stacks                           0       0.0%      0.0%      0.0%
 flops total                         0.000000E+00       0.0%      0.0%      0.0%
 flops max/rank                      0.000000E+00       0.0%      0.0%      0.0%
 matmuls inhomo. stacks                         0       0.0%      0.0%      0.0%
 matmuls total                                  0       0.0%      0.0%      0.0%
 number of processed stacks                     0       0.0%      0.0%      0.0%
 average stack size                                     0.0       0.0       0.0
 marketing flops                     0.000000E+00
 -------------------------------------------------------------------------------
 -                                                                             -
 -                      DBCSR MESSAGE PASSING PERFORMANCE                      -
 -                                                                             -
 -------------------------------------------------------------------------------
 ROUTINE             CALLS      AVE VOLUME [Bytes]
 MP_Bcast                1                     12.
 MP_Allreduce        33318                      8.
 MP_Alltoall        127644                   9354.
 -------------------------------------------------------------------------------

 -------------------------------------------------------------------------------
 -                                                                             -
 -                                DBM STATISTICS                               -
 -                                                                             -
 -------------------------------------------------------------------------------
    M  x    N  x    K                                          COUNT     PERCENT
 -------------------------------------------------------------------------------

 -------------------------------------------------------------------------------
 -                                                                             -
 -                                GRID STATISTICS                              -
 -                                                                             -
 -------------------------------------------------------------------------------
 LP    KERNEL             BACKEND                              COUNT     PERCENT
 4     collocate general  CPU                                 376624      50.66%
 4     integrate general  CPU                                 327085      44.00%
 7     integrate general  CPU                                  39640       5.33%
 0     collocate general  CPU                                     20       0.00%
 3     integrate general  CPU                                     16       0.00%
 -------------------------------------------------------------------------------

 MEMORY| Estimated peak process memory [MiB]                                 288

 -------------------------------------------------------------------------------
 -                                                                             -
 -                         MESSAGE PASSING PERFORMANCE                         -
 -                                                                             -
 -------------------------------------------------------------------------------

 ROUTINE             CALLS      AVE VOLUME [Bytes]
 MP_Group               17
 MP_Bcast            45120                  13381.
 MP_Allreduce        16076                     49.
 MP_Sync               169
 MP_Alltoall           829                2423729.
 MP_SendRecv          7379                  33573.
 MP_ISendRecv         7144                  33175.
 MP_Wait             34074
 MP_comm_split           5
 MP_ISend            31409                   3402.
 MP_IRecv            46351                   1393.
 -------------------------------------------------------------------------------


 -------------------------------------------------------------------------------
 -                                                                             -
 -                           R E F E R E N C E S                               -
 -                                                                             -
 -------------------------------------------------------------------------------
 
 CP2K version 2025.1, the CP2K developers group (2025).
 CP2K is freely available from https://www.cp2k.org/ .
 
 T. D. Kuehne, M. Iannuzzi, M. Del Ben, V. V. Rybkin, P. Seewald, F. Stein, T. 
 Laino, R. Z. Khaliullin, O. Schuett, F. Schiffmann, D. Golze, J. Wilhelm, S. 
 Chulkov, M. H. Bani-Hashemian, V. Weber, U. Borstnik, M. Taillefumier, A. S. 
 Jakobovits, A. Lazzaro, H. Pabst, T. Mueller, R. Schade, M. Guidon, S. 
 Andermatt, N. Holmberg, G. K. Schenter, A. Hehn, A. Bussy, F. Belleflamme, G. 
 Tabacchi, A. Gloess, M. Lass, I. Bethune, C. J. Mundy, C. Plessl, M. Watkins, 
 J. VandeVondele, M. Krack, J. Hutter.
 J. Chem. Phys. 152, 194103 (2020).
 CP2K: An electronic structure and molecular dynamics software package - 
 Quickstep: Efficient and accurate electronic structure calculations.
 https://doi.org/10.1063/5.0007045

 A. Togo, I. Tanaka.
 arXiv, 1808.01590 (2018).
 Spglib : a software library for crystal symmetry search.

 O. Schuett, P. Messmer, J. Hutter, J. VandeVondele.
 Electronic Structure Calculations on Graphics Processing Units, 173-190 (2016).
 GPU-Accelerated Sparse Matrix-Matrix Multiplication for Linear Scaling Density 
 Functional Theory.
 https://doi.org/10.1002/9781118670712.ch8

 A. Heinecke, G. Henry, M. Hutchinson, H. Pabst.
 Proceedings of Intl. Supercomputing Conference, 981-991 (2016).
 LIBXSMM: Accelerating Small Matrix Multiplications by Runtime Code Generation.
 https://doi.org/10.1109/SC.2016.83

 J. Hutter, M. Iannuzzi, F. Schiffmann, J. VandeVondele.
 WIREs Comput Mol Sci. 4, 15-25 (2014).
 CP2K: atomistic simulations of condensed matter systems.
 https://doi.org/10.1002/wcms.1159

 U. Borstnik, J. VandeVondele, V. Weber, J. Hutter.
 Parallel Comput. 40, 47-58 (2014).
 Sparse matrix multiplication: The distributed block-compressed sparse row 
 library.
 https://doi.org/10.1016/j.parco.2014.03.012

 J. VandeVondele, J. Hutter.
 J. Chem. Phys. 127, 114105 (2007).
 Gaussian basis sets for accurate calculations on molecular systems in gas and 
 condensed phases.
 https://doi.org/10.1063/1.2770708

 J. VandeVondele, M. Krack, F. Mohamed, M. Parrinello, T. Chassaing, J. Hutter.
 Comput. Phys. Commun. 167, 103-128 (2005).
 QUICKSTEP: Fast and accurate density functional calculations using a mixed 
 Gaussian and plane waves approach.
 https://doi.org/10.1016/j.cpc.2004.12.014

 M. Krack.
 Theor. Chem. Acc. 114, 145-152 (2005).
 Pseudopotentials for H to Kr optimized for gradient-corrected 
 exchange-correlation functionals.
 https://doi.org/10.1007/s00214-005-0655-y

 M. Frigo, S. G. Johnson.
 Proc. IEEE 93, 216-231 (2005).
 The design and implementation of FFTW3.
 https://doi.org/10.1109/JPROC.2004.840301

 C. Hartwigsen, S. Goedecker, J. Hutter.
 Phys. Rev. B 58, 3641-3662 (1998).
 Relativistic separable dual-space Gaussian pseudopotentials from H to Rn.
 https://doi.org/10.1103/PhysRevB.58.3641

 G. Lippert, J. Hutter, M. Parrinello.
 Mol. Phys. 92, 477-487 (1997).
 A hybrid Gaussian and plane wave density functional scheme.
 https://doi.org/10.1080/002689797170220

 S. Goedecker, M. Teter, J. Hutter.
 Phys. Rev. B 54, 1703-1710 (1996).
 Separable dual-space Gaussian pseudopotentials.
 https://doi.org/10.1103/PhysRevB.54.1703

 J. P. Perdew, K. Burke, M. Ernzerhof.
 Phys. Rev. Lett. 77, 3865-3868 (1996).
 Generalized gradient approximation made simple.
 https://doi.org/10.1103/PhysRevLett.77.3865


 -------------------------------------------------------------------------------
 -                                                                             -
 -                                T I M I N G                                  -
 -                                                                             -
 -------------------------------------------------------------------------------
 SUBROUTINE                       CALLS  ASD         SELF TIME        TOTAL TIME
                                MAXIMUM       AVERAGE  MAXIMUM  AVERAGE  MAXIMUM
 CP2K                                 1  1.0    0.069    0.071   33.074   33.074
 cp_cell_opt                          1  2.0    0.002    0.003   32.834   32.835
 geoopt_bfgs                          1  3.0    0.004    0.005   32.831   32.833
 cp_eval_at                           5  4.0    0.004    0.006   32.768   32.769
 qs_forces                            4  5.0    0.004    0.004   31.185   31.186
 qs_energies                          5  5.8    0.016    0.018   29.197   29.199
 scf_env_do_scf                       5  6.8    0.001    0.002   26.370   26.373
 scf_env_do_scf_inner_loop           33  8.0    0.013    0.014   26.367   26.371
 qs_scf_new_mos_kp                   33  9.0    0.001    0.002   13.473   14.279
 do_general_diag_kp                  33 10.0    0.014    0.016   13.472   14.278
 rebuild_ks_matrix                   37  9.6    0.000    0.001    2.027   13.808
 qs_ks_build_kohn_sham_matrix        37 10.6    0.023    0.024    2.027   13.807
 sum_up_and_integrate                37 11.6    0.000    0.001    1.578   13.338
 integrate_v_rspace                  37 12.6    0.002    0.018    1.576   13.337
 mp_alltoall_i22                  21294 12.6   11.786   12.800   11.786   12.800
 grid_integrate_task_list            37 13.6    1.003   12.768    1.003   12.768
 dbcsr_desymmetrize_deep          10707 11.3    0.093    0.109   11.307   12.214
 qs_ks_update_qs_env                 33  9.0    0.000    0.000    2.010   11.548
 transfer_rs2pw                     157 11.9    0.001    0.002   10.125   10.989
 transfer_rs2pw_200                  43 12.7    0.076    0.082   10.053   10.920
 mp_sendrecv_dv                    7379 13.9   10.030   10.894   10.030   10.894
 qs_rho_update_rho_low               38  8.9    0.000    0.000   10.726   10.731
 calculate_rho_elec                  38  9.9    0.003    0.020   10.726   10.731
 density_rs2pw                       38 10.9    0.001    0.002    9.806   10.613
 grid_collocate_task_list            38 10.9    0.912   10.295    0.912   10.295
 qs_ks_update_qs_env_forces           4  6.0    0.000    0.000    0.386    2.627
 mp_sum_dm                          240  6.5    2.286    2.484    2.286    2.484
 dbcsr_complete_redistribute      10587 11.8    0.169    0.290    2.076    2.143
 copy_dbcsr_to_fm                  6483 10.6    0.034    0.040    1.910    1.998
 init_scf_run                         5  6.8    0.000    0.000    1.892    1.901
 scf_env_initial_rho_setup            5  7.8    0.002    0.003    1.892    1.901
 mp_sum_d                         34017 12.5    1.126    1.267    1.126    1.267
 write_kpoints_restart               33  9.0    0.005    0.042    1.219    1.222
 rskp_transform                    2112 11.0    0.083    1.051    0.083    1.051
 kpoint_density_transform            37 10.6    0.011    0.012    1.006    1.022
 copy_fm_to_dbcsr                  4104 11.3    0.011    0.013    0.912    0.991
 calculate_ecore_overlap              9  7.0    0.000    0.000    0.778    0.909
 build_core_hamiltonian_matrix_       4  6.0    0.004    0.005    0.185    0.903
 qs_energies_init_hamiltonians        5  6.8    0.003    0.003    0.694    0.696
 -------------------------------------------------------------------------------

 The number of warnings for this run is : 1
 
 -------------------------------------------------------------------------------
  **** **** ******  **  PROGRAM ENDED AT                 2025-02-11 07:47:56.654
 ***** ** ***  *** **   PROGRAM RAN ON                                     c0337
 **    ****   ******    PROGRAM RAN BY                                    u12591
 ***** **    ** ** **   PROGRAM PROCESS ID                               1479755
  **** **  *******  **  PROGRAM STOPPED IN /mnt/lustre-grete/usr/u12591/cp2k_par
                                           ser_tests/cp2k-2025.1/cell_opt_low
