 DBCSR| CPU Multiplication driver                                           XSMM
 DBCSR| Multrec recursion limit                                              512
 DBCSR| Multiplication stack size                                           1000
 DBCSR| Maximum elements for images                                    UNLIMITED
 DBCSR| Multiplicative factor virtual images                                   1
 DBCSR| Use multiplication densification                                       T
 DBCSR| Multiplication size stacks                                             3
 DBCSR| Use memory pool for CPU allocation                                     F
 DBCSR| Number of 3D layers                                               SINGLE
 DBCSR| Use MPI memory allocation                                              F
 DBCSR| Use RMA algorithm                                                      F
 DBCSR| Use Communication thread                                               T
 DBCSR| Communication thread load                                             83
 DBCSR| MPI: My node id                                                        0
 DBCSR| MPI: Number of nodes                                                  12
 DBCSR| OMP: Current number of threads                                         2
 DBCSR| OMP: Max number of threads                                             2
 DBCSR| Split modifier for TAS multiplication algorithm                  1.0E+00


  **** **** ******  **  PROGRAM STARTED AT               2021-06-03 14:36:07.346
 ***** ** ***  *** **   PROGRAM STARTED ON                               mpcl003
 **    ****   ******    PROGRAM STARTED BY                              pubo1141
 ***** **    ** ** **   PROGRAM PROCESS ID                                 10809
  **** **  *******  **  PROGRAM STARTED IN /user/pubo1141/simulations/aiida_test
                                           s/cp2k_8.1/bands_spin_pol_low

 CP2K| version string:                                          CP2K version 8.1
 CP2K| source code revision number:                                  git:0b61f2f
 CP2K| cp2kflags: omp libint fftw3 libxc parallel mpi3 scalapack xsmm spglib mkl
 CP2K|             libvori libbqb
 CP2K| is freely available from                            https://www.cp2k.org/
 CP2K| Program compiled at                         Thu May 27 13:34:22 CEST 2021
 CP2K| Program compiled on                                               hpcl001
 CP2K| Program compiled for                                        carl-mkl-ompi
 CP2K| Data directory path    /cm/shared/uniol/software/8.3/CP2K/8.2-gomkl-2019b
 CP2K| Input file name                                                 aiida.inp

 GLOBAL| Force Environment number                                              1
 GLOBAL| Basis set file name                                        BASIS_MOLOPT
 GLOBAL| Potential file name                                      GTH_POTENTIALS
 GLOBAL| MM Potential file name                                     MM_POTENTIAL
 GLOBAL| Coordinate file name                                      __STD_INPUT__
 GLOBAL| Method name                                                        CP2K
 GLOBAL| Project name                                            TiO2-bulk-bands
 GLOBAL| Preferred FFT library                                             FFTW3
 GLOBAL| Preferred diagonalization lib.                                       SL
 GLOBAL| Run type                                                         ENERGY
 GLOBAL| All-to-all communication in single precision                          F
 GLOBAL| FFTs using library dependent lengths                                  F
 GLOBAL| Global print level                                                  LOW
 GLOBAL| MPI I/O enabled                                                       T
 GLOBAL| Total number of message passing processes                            12
 GLOBAL| Number of threads for this process                                    2
 GLOBAL| This output is from process                                           0
 GLOBAL| CPU model name                Intel(R) Xeon(R) CPU E5-2650 v4 @ 2.20GHz
 GLOBAL| CPUID                                                              1002
 GLOBAL| Compiled for CPUID                                                    0

 *** HINT in environment.F:802 :: The compiler target flags (generic) used ***
 *** to build this binary cannot exploit all extensions of this CPU model  ***
 *** (x86_avx2). Consider compiler target flags as part of FCFLAGS and     ***
 *** CFLAGS (ARCH file).                                                   ***


 MEMORY| system memory details [Kb]
 MEMORY|                        rank 0           min           max       average
 MEMORY| MemTotal            131594208     131594208     131594208     131594208
 MEMORY| MemFree              84740132      84739728      84740132      84740031
 MEMORY| Buffers                 29776         29776         29776         29776
 MEMORY| Cached               36526692      36526692      36526692      36526692
 MEMORY| Slab                  2021760       2021760       2021760       2021760
 MEMORY| SReclaimable           884756        884756        884756        884756
 MEMORY| MemLikelyFree       122181356     122180952     122181356     122181255


 GENERATE|  Preliminary Number of Bonds generated:                             0
 GENERATE|  Achieved consistency in connectivity generation.

 *** WARNING in cryssym.F:169 :: Version of Symmetry Library SPGLIB not ***
 *** tested                                                             ***


 *******************************************************************************
 *******************************************************************************
 **                                                                           **
 **     #####                         ##              ##                      **
 **    ##   ##            ##          ##              ##                      **
 **   ##     ##                       ##            ######                    **
 **   ##     ##  ##   ##  ##   #####  ##  ##   ####   ##    #####    #####    **
 **   ##     ##  ##   ##  ##  ##      ## ##   ##      ##   ##   ##  ##   ##   **
 **   ##  ## ##  ##   ##  ##  ##      ####     ###    ##   ######   ######    **
 **    ##  ###   ##   ##  ##  ##      ## ##      ##   ##   ##       ##        **
 **     #######   #####   ##   #####  ##  ##  ####    ##    #####   ##        **
 **           ##                                                    ##        **
 **                                                                           **
 **                                                ... make the atoms dance   **
 **                                                                           **
 **            Copyright (C) by CP2K developers group (2000 - 2020)           **
 **                      J. Chem. Phys. 152, 194103 (2020)                    **
 **                                                                           **
 *******************************************************************************


 TOTAL NUMBERS AND MAXIMUM NUMBERS

  Total number of            - Atomic kinds:                                   2
                             - Atoms:                                          6
                             - Shell sets:                                     6
                             - Shells:                                        36
                             - Primitive Cartesian functions:                 40
                             - Cartesian basis functions:                    118
                             - Spherical basis functions:                    104

  Maximum angular momentum of- Orbital basis functions:                        3
                             - Local part of the GTH pseudopotential:          2
                             - Non-local part of the GTH pseudopotential:      3


 SCF PARAMETERS         Density guess:                                   RESTART
                        --------------------------------------------------------
                        max_scf:                                             150
                        max_scf_history:                                       0
                        max_diis:                                              4
                        --------------------------------------------------------
                        eps_scf:                                        1.00E-04
                        eps_scf_history:                                0.00E+00
                        eps_diis:                                       1.00E-01
                        eps_eigval:                                     1.00E-05
                        --------------------------------------------------------
                        level_shift [a.u.]:                                 0.00
                        --------------------------------------------------------
                        Mixing method:                            BROYDEN_MIXING
                                                charge density mixing in g-space
                        --------------------------------------------------------
                        No outer SCF

 KPOINTS| Number of kpoint groups                                              6
 KPOINTS| Size of each kpoint group                                            2
 KPOINTS| Number of kpoints per group                                          1

 Spin 1

 Number of electrons:                                                         24
 Number of occupied orbitals:                                                 24
 Number of molecular orbitals:                                                24

 Spin 2

 Number of electrons:                                                         24
 Number of occupied orbitals:                                                 24
 Number of molecular orbitals:                                                24

 Number of orbital functions:                                                104
 Number of independent orbital functions:                                    104

 Extrapolation method: initial_guess

 *** WARNING in qs_initial_guess.F:309 :: User requested to restart the    ***
 *** wavefunction from the file named: TiO2-bulk-bands-RESTART.kp. This    ***
 *** file does not exist. Please check the existence of the file or change ***
 *** properly the value of the keyword WFN_RESTART_FILE_NAME. Calculation  ***
 *** continues using ATOMIC GUESS.                                         ***



 SCF WAVEFUNCTION OPTIMIZATION

  Step     Update method      Time    Convergence         Total energy    Change
  ------------------------------------------------------------------------------
     1 NoMix/Diag. 0.10E+00    0.4     1.04544619      -181.2327048285 -1.81E+02
     2 Broy./Diag. 0.10E+00    0.6     0.03285159      -177.3631939536  3.87E+00
     3 Broy./Diag. 0.10E+00    0.7     0.12915711      -179.3509759470 -1.99E+00
     4 Broy./Diag. 0.10E+00    0.6     0.03898252      -180.7760683946 -1.43E+00
     5 Broy./Diag. 0.10E+00    0.6     0.00310974      -180.8050651561 -2.90E-02
     6 Broy./Diag. 0.10E+00    0.6     0.00714671      -180.9156228803 -1.11E-01
     7 Broy./Diag. 0.10E+00    0.6     0.00137319      -181.0838105068 -1.68E-01
     8 Broy./Diag. 0.10E+00    0.6     0.00386322      -180.9762476917  1.08E-01
     9 Broy./Diag. 0.10E+00    0.6     0.00045313      -180.9004213449  7.58E-02
    10 Broy./Diag. 0.10E+00    0.6     0.00018132      -180.8956163310  4.81E-03
    11 Broy./Diag. 0.10E+00    0.6     0.00025581      -180.9035368300 -7.92E-03
    12 Broy./Diag. 0.10E+00    0.6     0.00007494      -180.9087739378 -5.24E-03

  *** SCF run converged in    12 steps ***


  Electronic density on regular grids:        -47.9999551032        0.0000448968
  Core density on regular grids:               47.9999998635       -0.0000001365
  Total charge density on r-space grids:        0.0000447603
  Total charge density g-space grids:           0.0000447603

  Overlap energy of the core charge distribution:               0.00000000000004
  Self energy of the core charge distribution:               -379.90298629198736
  Core Hamiltonian energy:                                    101.16818260611080
  Hartree energy:                                             126.52235603726385
  Exchange-correlation energy:                                -28.69632628922637

  Total energy:                                              -180.90877393783902

  Integrated absolute spin density  :                               0.0000000000

 *** WARNING in qs_scf_post_gpw.F:1776 :: Spin contamination estimate not ***
 *** implemented for k-points.                                            ***


 KPOINTS| Band Structure Calculation
 KPOINTS| Number of k-point sets                                               3
 KPOINTS| Number of added MOs/bands                                           10

 KPOINTS| Number of kpoint groups                                              1
 KPOINTS| Size of each kpoint group                                           12
 KPOINTS| Number of kpoints per group                                          7
 KPOINTS| Number of k-points in set    1                                       7
 KPOINTS| In units of b-vector [2pi/Bohr]
 KPOINTS| Special point     1       GAMMA     0.000000     0.000000     0.000000
 KPOINTS| Special point     2           X     0.000000     0.500000     0.000000
#  Point 1      Spin 1:     0.00000000     0.00000000     0.00000000       0.14285714
#   Band    Energy [eV]     Occupation
       1   -51.67228029     1.00000000
       2   -51.65851446     1.00000000
       3   -26.44609330     1.00000000
       4   -26.44436038     1.00000000
       5   -26.29943198     1.00000000
       6   -26.29817241     1.00000000
       7   -26.27873001     1.00000000
       8   -26.24880926     1.00000000
       9   -11.29145959     1.00000000
      10   -10.17322157     1.00000000
      11    -9.49254960     1.00000000
      12    -9.49137944     1.00000000
      13     1.09832641     1.00000000
      14     1.52309587     1.00000000
      15     2.07592762     1.00000000
      16     3.04312471     1.00000000
      17     3.05060220     1.00000000
      18     4.26435662     1.00000000
      19     4.26638990     1.00000000
      20     4.86755286     1.00000000
      21     6.08799609     1.00000000
      22     6.34048727     1.00000000
      23     6.34298138     1.00000000
      24     6.81340481     1.00000000
      25     8.49789529     0.00000000
      26     8.77826233     0.00000000
      27     9.03527950     0.00000000
      28     9.11155940     0.00000000
      29     9.12040122     0.00000000
      30    10.89039414     0.00000000
      31    11.18595732     0.00000000
      32    13.08785148     0.00000000
      33    13.09957899     0.00000000
      34    14.05293681     0.00000000
#  Point 1      Spin 2:     0.00000000     0.00000000     0.00000000       0.14285714
#   Band    Energy [eV]     Occupation
       1   -51.67228029     1.00000000
       2   -51.65851446     1.00000000
       3   -26.44609330     1.00000000
       4   -26.44436038     1.00000000
       5   -26.29943198     1.00000000
       6   -26.29817241     1.00000000
       7   -26.27873001     1.00000000
       8   -26.24880926     1.00000000
       9   -11.29145959     1.00000000
      10   -10.17322157     1.00000000
      11    -9.49254960     1.00000000
      12    -9.49137944     1.00000000
      13     1.09832641     1.00000000
      14     1.52309587     1.00000000
      15     2.07592762     1.00000000
      16     3.04312471     1.00000000
      17     3.05060220     1.00000000
      18     4.26435662     1.00000000
      19     4.26638990     1.00000000
      20     4.86755286     1.00000000
      21     6.08799609     1.00000000
      22     6.34048727     1.00000000
      23     6.34298138     1.00000000
      24     6.81340481     1.00000000
      25     8.49789529     0.00000000
      26     8.77826233     0.00000000
      27     9.03527950     0.00000000
      28     9.11155940     0.00000000
      29     9.12040122     0.00000000
      30    10.89039414     0.00000000
      31    11.18595732     0.00000000
      32    13.08785148     0.00000000
      33    13.09957899     0.00000000
      34    14.05293681     0.00000000
#  Point 2      Spin 1:     0.00000000     0.08333333     0.00000000       0.14285714
#   Band    Energy [eV]     Occupation
       1   -51.67207535     1.00000000
       2   -51.65868874     1.00000000
       3   -26.44420754     1.00000000
       4   -26.44242315     1.00000000
       5   -26.30169065     1.00000000
       6   -26.30037644     1.00000000
       7   -26.27826696     1.00000000
       8   -26.24926996     1.00000000
       9   -11.26837775     1.00000000
      10   -10.17454473     1.00000000
      11    -9.51521340     1.00000000
      12    -9.50028498     1.00000000
      13     1.14361866     1.00000000
      14     1.55053879     1.00000000
      15     2.11777243     1.00000000
      16     3.04663832     1.00000000
      17     3.05441044     1.00000000
      18     4.22146591     1.00000000
      19     4.25338733     1.00000000
      20     4.87035254     1.00000000
      21     6.04297930     1.00000000
      22     6.20820184     1.00000000
      23     6.27969763     1.00000000
      24     6.79447708     1.00000000
      25     8.54038201     0.00000000
      26     8.83906030     0.00000000
      27     9.08920722     0.00000000
      28     9.14198965     0.00000000
      29     9.15745117     0.00000000
      30    10.93782379     0.00000000
      31    11.15168116     0.00000000
      32    13.06715529     0.00000000
      33    13.07989875     0.00000000
      34    14.01104919     0.00000000
#  Point 2      Spin 2:     0.00000000     0.08333333     0.00000000       0.14285714
#   Band    Energy [eV]     Occupation
       1   -51.67207535     1.00000000
       2   -51.65868874     1.00000000
       3   -26.44420754     1.00000000
       4   -26.44242315     1.00000000
       5   -26.30169065     1.00000000
       6   -26.30037644     1.00000000
       7   -26.27826696     1.00000000
       8   -26.24926996     1.00000000
       9   -11.26837775     1.00000000
      10   -10.17454473     1.00000000
      11    -9.51521340     1.00000000
      12    -9.50028498     1.00000000
      13     1.14361866     1.00000000
      14     1.55053879     1.00000000
      15     2.11777243     1.00000000
      16     3.04663832     1.00000000
      17     3.05441044     1.00000000
      18     4.22146591     1.00000000
      19     4.25338733     1.00000000
      20     4.87035254     1.00000000
      21     6.04297930     1.00000000
      22     6.20820184     1.00000000
      23     6.27969763     1.00000000
      24     6.79447708     1.00000000
      25     8.54038201     0.00000000
      26     8.83906030     0.00000000
      27     9.08920722     0.00000000
      28     9.14198965     0.00000000
      29     9.15745117     0.00000000
      30    10.93782379     0.00000000
      31    11.15168116     0.00000000
      32    13.06715529     0.00000000
      33    13.07989875     0.00000000
      34    14.01104919     0.00000000
#  Point 3      Spin 1:     0.00000000     0.16666667     0.00000000       0.14285714
#   Band    Energy [eV]     Occupation
       1   -51.67147858     1.00000000
       2   -51.65922276     1.00000000
       3   -26.43869898     1.00000000
       4   -26.43669129     1.00000000
       5   -26.30825836     1.00000000
       6   -26.30668620     1.00000000
       7   -26.27691906     1.00000000
       8   -26.25061101     1.00000000
       9   -11.20036390     1.00000000
      10   -10.18329598     1.00000000
      11    -9.57692794     1.00000000
      12    -9.52431171     1.00000000
      13     1.27046915     1.00000000
      14     1.62832561     1.00000000
      15     2.24604197     1.00000000
      16     3.05537473     1.00000000
      17     3.06572204     1.00000000
      18     4.10237706     1.00000000
      19     4.20986148     1.00000000
      20     4.88206369     1.00000000
      21     5.86129677     1.00000000
      22     5.91983223     1.00000000
      23     6.13878543     1.00000000
      24     6.72319282     1.00000000
      25     8.65075748     0.00000000
      26     8.97784149     0.00000000
      27     9.21978118     0.00000000
      28     9.23359370     0.00000000
      29     9.26229037     0.00000000
      30    11.03261299     0.00000000
      31    11.10444688     0.00000000
      32    13.00691949     0.00000000
      33    13.02759265     0.00000000
      34    13.87616079     0.00000000
#  Point 3      Spin 2:     0.00000000     0.16666667     0.00000000       0.14285714
#   Band    Energy [eV]     Occupation
       1   -51.67147858     1.00000000
       2   -51.65922276     1.00000000
       3   -26.43869898     1.00000000
       4   -26.43669129     1.00000000
       5   -26.30825836     1.00000000
       6   -26.30668620     1.00000000
       7   -26.27691906     1.00000000
       8   -26.25061101     1.00000000
       9   -11.20036390     1.00000000
      10   -10.18329598     1.00000000
      11    -9.57692794     1.00000000
      12    -9.52431171     1.00000000
      13     1.27046915     1.00000000
      14     1.62832561     1.00000000
      15     2.24604197     1.00000000
      16     3.05537473     1.00000000
      17     3.06572204     1.00000000
      18     4.10237706     1.00000000
      19     4.20986148     1.00000000
      20     4.88206369     1.00000000
      21     5.86129677     1.00000000
      22     5.91983223     1.00000000
      23     6.13878543     1.00000000
      24     6.72319282     1.00000000
      25     8.65075748     0.00000000
      26     8.97784149     0.00000000
      27     9.21978118     0.00000000
      28     9.23359370     0.00000000
      29     9.26229037     0.00000000
      30    11.03261299     0.00000000
      31    11.10444688     0.00000000
      32    13.00691949     0.00000000
      33    13.02759265     0.00000000
      34    13.87616079     0.00000000
#  Point 4      Spin 1:     0.00000000     0.25000000     0.00000000       0.14285714
#   Band    Energy [eV]     Occupation
       1   -51.67054500     1.00000000
       2   -51.66010450     1.00000000
       3   -26.43010079     1.00000000
       4   -26.42763025     1.00000000
       5   -26.31837243     1.00000000
       6   -26.31628896     1.00000000
       7   -26.27481566     1.00000000
       8   -26.25270417     1.00000000
       9   -11.09118461     1.00000000
      10   -10.21539305     1.00000000
      11    -9.65264563     1.00000000
      12    -9.56108238     1.00000000
      13     1.45288684     1.00000000
      14     1.74160630     1.00000000
      15     2.46815564     1.00000000
      16     3.06721654     1.00000000
      17     3.08132410     1.00000000
      18     3.94115293     1.00000000
      19     4.11878208     1.00000000
      20     4.91132814     1.00000000
      21     5.38355329     1.00000000
      22     5.74626547     1.00000000
      23     6.00833662     1.00000000
      24     6.59842322     1.00000000
      25     8.79504434     0.00000000
      26     9.11408886     0.00000000
      27     9.33110835     0.00000000
      28     9.39817036     0.00000000
      29     9.43605524     0.00000000
      30    10.88368152     0.00000000
      31    11.34943216     0.00000000
      32    12.92175150     0.00000000
      33    12.95330325     0.00000000
      34    13.64745466     0.00000000
#  Point 4      Spin 2:     0.00000000     0.25000000     0.00000000       0.14285714
#   Band    Energy [eV]     Occupation
       1   -51.67054500     1.00000000
       2   -51.66010450     1.00000000
       3   -26.43010079     1.00000000
       4   -26.42763025     1.00000000
       5   -26.31837243     1.00000000
       6   -26.31628896     1.00000000
       7   -26.27481566     1.00000000
       8   -26.25270417     1.00000000
       9   -11.09118461     1.00000000
      10   -10.21539305     1.00000000
      11    -9.65264563     1.00000000
      12    -9.56108238     1.00000000
      13     1.45288684     1.00000000
      14     1.74160630     1.00000000
      15     2.46815564     1.00000000
      16     3.06721654     1.00000000
      17     3.08132410     1.00000000
      18     3.94115293     1.00000000
      19     4.11878208     1.00000000
      20     4.91132814     1.00000000
      21     5.38355329     1.00000000
      22     5.74626547     1.00000000
      23     6.00833662     1.00000000
      24     6.59842322     1.00000000
      25     8.79504434     0.00000000
      26     9.11408886     0.00000000
      27     9.33110835     0.00000000
      28     9.39817036     0.00000000
      29     9.43605524     0.00000000
      30    10.88368152     0.00000000
      31    11.34943216     0.00000000
      32    12.92175150     0.00000000
      33    12.95330325     0.00000000
      34    13.64745466     0.00000000
#  Point 5      Spin 1:     0.00000000     0.33333333     0.00000000       0.14285714
#   Band    Energy [eV]     Occupation
       1   -51.66938269     1.00000000
       2   -51.66123966     1.00000000
       3   -26.41957029     1.00000000
       4   -26.41648386     1.00000000
       5   -26.33048627     1.00000000
       6   -26.32778532     1.00000000
       7   -26.27220506     1.00000000
       8   -26.25530358     1.00000000
       9   -10.94739032     1.00000000
      10   -10.29475227     1.00000000
      11    -9.70656044     1.00000000
      12    -9.60610650     1.00000000
      13     1.65274426     1.00000000
      14     1.86142375     1.00000000
      15     2.79106657     1.00000000
      16     3.08047424     1.00000000
      17     3.09549071     1.00000000
      18     3.78439225     1.00000000
      19     3.97718186     1.00000000
      20     4.83753039     1.00000000
      21     4.96871850     1.00000000
      22     5.55218268     1.00000000
      23     5.95461467     1.00000000
      24     6.43812661     1.00000000
      25     8.94252760     0.00000000
      26     9.19595964     0.00000000
      27     9.45302199     0.00000000
      28     9.52330053     0.00000000
      29     9.67246540     0.00000000
      30    10.67935132     0.00000000
      31    11.69843539     0.00000000
      32    12.83655780     0.00000000
      33    12.87161896     0.00000000
      34    13.33638121     0.00000000
#  Point 5      Spin 2:     0.00000000     0.33333333     0.00000000       0.14285714
#   Band    Energy [eV]     Occupation
       1   -51.66938269     1.00000000
       2   -51.66123966     1.00000000
       3   -26.41957029     1.00000000
       4   -26.41648386     1.00000000
       5   -26.33048627     1.00000000
       6   -26.32778532     1.00000000
       7   -26.27220506     1.00000000
       8   -26.25530358     1.00000000
       9   -10.94739032     1.00000000
      10   -10.29475227     1.00000000
      11    -9.70656044     1.00000000
      12    -9.60610650     1.00000000
      13     1.65274426     1.00000000
      14     1.86142375     1.00000000
      15     2.79106657     1.00000000
      16     3.08047424     1.00000000
      17     3.09549071     1.00000000
      18     3.78439225     1.00000000
      19     3.97718186     1.00000000
      20     4.83753039     1.00000000
      21     4.96871850     1.00000000
      22     5.55218268     1.00000000
      23     5.95461467     1.00000000
      24     6.43812661     1.00000000
      25     8.94252760     0.00000000
      26     9.19595964     0.00000000
      27     9.45302199     0.00000000
      28     9.52330053     0.00000000
      29     9.67246540     0.00000000
      30    10.67935132     0.00000000
      31    11.69843539     0.00000000
      32    12.83655780     0.00000000
      33    12.87161896     0.00000000
      34    13.33638121     0.00000000
#  Point 6      Spin 1:     0.00000000     0.41666667     0.00000000       0.14285714
#   Band    Energy [eV]     Occupation
       1   -51.66822798     1.00000000
       2   -51.66238411     1.00000000
       3   -26.40957493     1.00000000
       4   -26.40587752     1.00000000
       5   -26.34175135     1.00000000
       6   -26.33849224     1.00000000
       7   -26.26959851     1.00000000
       8   -26.25790135     1.00000000
       9   -10.77882302     1.00000000
      10   -10.42947004     1.00000000
      11    -9.71781537     1.00000000
      12    -9.65336609     1.00000000
      13     1.82753824     1.00000000
      14     1.94173404     1.00000000
      15     3.09228416     1.00000000
      16     3.10368018     1.00000000
      17     3.21051200     1.00000000
      18     3.68679052     1.00000000
      19     3.81932386     1.00000000
      20     4.27103744     1.00000000
      21     5.06249885     1.00000000
      22     5.36245957     1.00000000
      23     5.99432313     1.00000000
      24     6.26589104     1.00000000
      25     9.07085537     0.00000000
      26     9.21068941     0.00000000
      27     9.55639490     0.00000000
      28     9.60206420     0.00000000
      29     9.92740963     0.00000000
      30    10.44310302     0.00000000
      31    12.10886176     0.00000000
      32    12.77757845     0.00000000
      33    12.80311700     0.00000000
      34    12.96009430     0.00000000
#  Point 6      Spin 2:     0.00000000     0.41666667     0.00000000       0.14285714
#   Band    Energy [eV]     Occupation
       1   -51.66822798     1.00000000
       2   -51.66238411     1.00000000
       3   -26.40957493     1.00000000
       4   -26.40587752     1.00000000
       5   -26.34175135     1.00000000
       6   -26.33849224     1.00000000
       7   -26.26959851     1.00000000
       8   -26.25790135     1.00000000
       9   -10.77882302     1.00000000
      10   -10.42947004     1.00000000
      11    -9.71781537     1.00000000
      12    -9.65336609     1.00000000
      13     1.82753824     1.00000000
      14     1.94173404     1.00000000
      15     3.09228416     1.00000000
      16     3.10368018     1.00000000
      17     3.21051200     1.00000000
      18     3.68679052     1.00000000
      19     3.81932386     1.00000000
      20     4.27103744     1.00000000
      21     5.06249885     1.00000000
      22     5.36245957     1.00000000
      23     5.99432313     1.00000000
      24     6.26589104     1.00000000
      25     9.07085537     0.00000000
      26     9.21068941     0.00000000
      27     9.55639490     0.00000000
      28     9.60206420     0.00000000
      29     9.92740963     0.00000000
      30    10.44310302     0.00000000
      31    12.10886176     0.00000000
      32    12.77757845     0.00000000
      33    12.80311700     0.00000000
      34    12.96009430     0.00000000
#  Point 7      Spin 1:     0.00000000     0.50000000     0.00000000       0.14285714
#   Band    Energy [eV]     Occupation
       1   -51.66765932     1.00000000
       2   -51.66295012     1.00000000
       3   -26.40499235     1.00000000
       4   -26.40097412     1.00000000
       5   -26.34688166     1.00000000
       6   -26.34334404     1.00000000
       7   -26.26828524     1.00000000
       8   -26.25921129     1.00000000
       9   -10.60036628     1.00000000
      10   -10.59871747     1.00000000
      11    -9.69508896     1.00000000
      12    -9.69420137     1.00000000
      13     1.93323878     1.00000000
      14     1.93529247     1.00000000
      15     3.09783452     1.00000000
      16     3.10542264     1.00000000
      17     3.65873206     1.00000000
      18     3.65938188     1.00000000
      19     3.75669606     1.00000000
      20     3.75929766     1.00000000
      21     5.19145787     1.00000000
      22     5.19917211     1.00000000
      23     6.10808452     1.00000000
      24     6.10825601     1.00000000
      25     9.15813405     0.00000000
      26     9.17142730     0.00000000
      27     9.60840337     0.00000000
      28     9.61719985     0.00000000
      29    10.18616106     0.00000000
      30    10.19051397     0.00000000
      31    12.53254868     0.00000000
      32    12.54992247     0.00000000
      33    12.75996312     0.00000000
      34    12.77283696     0.00000000
#  Point 7      Spin 2:     0.00000000     0.50000000     0.00000000       0.14285714
#   Band    Energy [eV]     Occupation
       1   -51.66765932     1.00000000
       2   -51.66295012     1.00000000
       3   -26.40499235     1.00000000
       4   -26.40097412     1.00000000
       5   -26.34688166     1.00000000
       6   -26.34334404     1.00000000
       7   -26.26828524     1.00000000
       8   -26.25921129     1.00000000
       9   -10.60036628     1.00000000
      10   -10.59871747     1.00000000
      11    -9.69508896     1.00000000
      12    -9.69420137     1.00000000
      13     1.93323878     1.00000000
      14     1.93529247     1.00000000
      15     3.09783452     1.00000000
      16     3.10542264     1.00000000
      17     3.65873206     1.00000000
      18     3.65938188     1.00000000
      19     3.75669606     1.00000000
      20     3.75929766     1.00000000
      21     5.19145787     1.00000000
      22     5.19917211     1.00000000
      23     6.10808452     1.00000000
      24     6.10825601     1.00000000
      25     9.15813405     0.00000000
      26     9.17142730     0.00000000
      27     9.60840337     0.00000000
      28     9.61719985     0.00000000
      29    10.18616106     0.00000000
      30    10.19051397     0.00000000
      31    12.53254868     0.00000000
      32    12.54992247     0.00000000
      33    12.75996312     0.00000000
      34    12.77283696     0.00000000
 KPOINTS| Time for k-point line                                            0.594

 KPOINTS| Number of kpoint groups                                              1
 KPOINTS| Size of each kpoint group                                           12
 KPOINTS| Number of kpoints per group                                          7
 KPOINTS| Number of k-points in set    2                                       7
 KPOINTS| In units of b-vector [2pi/Bohr]
 KPOINTS| Special point     1           X     0.000000     0.500000     0.000000
 KPOINTS| Special point     2           M     0.500000     0.500000     0.000000
#  Point 1      Spin 1:     0.00000000     0.50000000     0.00000000       0.14285714
#   Band    Energy [eV]     Occupation
       1   -51.66765932     1.00000000
       2   -51.66295012     1.00000000
       3   -26.40499235     1.00000000
       4   -26.40097412     1.00000000
       5   -26.34688166     1.00000000
       6   -26.34334404     1.00000000
       7   -26.26828524     1.00000000
       8   -26.25921129     1.00000000
       9   -10.60036628     1.00000000
      10   -10.59871747     1.00000000
      11    -9.69508896     1.00000000
      12    -9.69420137     1.00000000
      13     1.93323878     1.00000000
      14     1.93529247     1.00000000
      15     3.09783452     1.00000000
      16     3.10542264     1.00000000
      17     3.65873206     1.00000000
      18     3.65938188     1.00000000
      19     3.75669606     1.00000000
      20     3.75929766     1.00000000
      21     5.19145787     1.00000000
      22     5.19917211     1.00000000
      23     6.10808452     1.00000000
      24     6.10825601     1.00000000
      25     9.15813405     0.00000000
      26     9.17142730     0.00000000
      27     9.60840337     0.00000000
      28     9.61719985     0.00000000
      29    10.18616106     0.00000000
      30    10.19051397     0.00000000
      31    12.53254868     0.00000000
      32    12.54992247     0.00000000
      33    12.75996312     0.00000000
      34    12.77283696     0.00000000
#  Point 1      Spin 2:     0.00000000     0.50000000     0.00000000       0.14285714
#   Band    Energy [eV]     Occupation
       1   -51.66765932     1.00000000
       2   -51.66295012     1.00000000
       3   -26.40499235     1.00000000
       4   -26.40097412     1.00000000
       5   -26.34688166     1.00000000
       6   -26.34334404     1.00000000
       7   -26.26828524     1.00000000
       8   -26.25921129     1.00000000
       9   -10.60036628     1.00000000
      10   -10.59871747     1.00000000
      11    -9.69508896     1.00000000
      12    -9.69420137     1.00000000
      13     1.93323878     1.00000000
      14     1.93529247     1.00000000
      15     3.09783452     1.00000000
      16     3.10542264     1.00000000
      17     3.65873206     1.00000000
      18     3.65938188     1.00000000
      19     3.75669606     1.00000000
      20     3.75929766     1.00000000
      21     5.19145787     1.00000000
      22     5.19917211     1.00000000
      23     6.10808452     1.00000000
      24     6.10825601     1.00000000
      25     9.15813405     0.00000000
      26     9.17142730     0.00000000
      27     9.60840337     0.00000000
      28     9.61719985     0.00000000
      29    10.18616106     0.00000000
      30    10.19051397     0.00000000
      31    12.53254868     0.00000000
      32    12.54992247     0.00000000
      33    12.75996312     0.00000000
      34    12.77283696     0.00000000
#  Point 2      Spin 1:     0.08333333     0.50000000     0.00000000       0.14285714
#   Band    Energy [eV]     Occupation
       1   -51.66765721     1.00000000
       2   -51.66294692     1.00000000
       3   -26.41079149     1.00000000
       4   -26.40743369     1.00000000
       5   -26.34041024     1.00000000
       6   -26.33753289     1.00000000
       7   -26.26827637     1.00000000
       8   -26.25920230     1.00000000
       9   -10.60485060     1.00000000
      10   -10.60315987     1.00000000
      11    -9.68857363     1.00000000
      12    -9.68765244     1.00000000
      13     1.88214140     1.00000000
      14     1.88451400     1.00000000
      15     3.08913163     1.00000000
      16     3.09670189     1.00000000
      17     3.56039374     1.00000000
      18     3.56113689     1.00000000
      19     3.96398509     1.00000000
      20     3.96650006     1.00000000
      21     5.21221222     1.00000000
      22     5.22004863     1.00000000
      23     6.05783171     1.00000000
      24     6.05806192     1.00000000
      25     9.12557654     0.00000000
      26     9.13903500     0.00000000
      27     9.57551135     0.00000000
      28     9.58425045     0.00000000
      29    10.20608214     0.00000000
      30    10.21045759     0.00000000
      31    12.50977306     0.00000000
      32    12.52766362     0.00000000
      33    12.78433459     0.00000000
      34    12.79709100     0.00000000
#  Point 2      Spin 2:     0.08333333     0.50000000     0.00000000       0.14285714
#   Band    Energy [eV]     Occupation
       1   -51.66765721     1.00000000
       2   -51.66294692     1.00000000
       3   -26.41079149     1.00000000
       4   -26.40743369     1.00000000
       5   -26.34041024     1.00000000
       6   -26.33753289     1.00000000
       7   -26.26827637     1.00000000
       8   -26.25920230     1.00000000
       9   -10.60485060     1.00000000
      10   -10.60315987     1.00000000
      11    -9.68857363     1.00000000
      12    -9.68765244     1.00000000
      13     1.88214140     1.00000000
      14     1.88451400     1.00000000
      15     3.08913163     1.00000000
      16     3.09670189     1.00000000
      17     3.56039374     1.00000000
      18     3.56113689     1.00000000
      19     3.96398509     1.00000000
      20     3.96650006     1.00000000
      21     5.21221222     1.00000000
      22     5.22004863     1.00000000
      23     6.05783171     1.00000000
      24     6.05806192     1.00000000
      25     9.12557654     0.00000000
      26     9.13903500     0.00000000
      27     9.57551135     0.00000000
      28     9.58425045     0.00000000
      29    10.20608214     0.00000000
      30    10.21045759     0.00000000
      31    12.50977306     0.00000000
      32    12.52766362     0.00000000
      33    12.78433459     0.00000000
      34    12.79709100     0.00000000
#  Point 3      Spin 1:     0.16666667     0.50000000     0.00000000       0.14285714
#   Band    Energy [eV]     Occupation
       1   -51.66765752     1.00000000
       2   -51.66294415     1.00000000
       3   -26.42324219     1.00000000
       4   -26.42072119     1.00000000
       5   -26.32708818     1.00000000
       6   -26.32504717     1.00000000
       7   -26.26825218     1.00000000
       8   -26.25917776     1.00000000
       9   -10.61673667     1.00000000
      10   -10.61494456     1.00000000
      11    -9.67094937     1.00000000
      12    -9.66995292     1.00000000
      13     1.75242480     1.00000000
      14     1.75530290     1.00000000
      15     3.06596764     1.00000000
      16     3.07349093     1.00000000
      17     3.54336648     1.00000000
      18     3.54378192     1.00000000
      19     4.27364705     1.00000000
      20     4.27649352     1.00000000
      21     5.26902899     1.00000000
      22     5.27719937     1.00000000
      23     5.92294198     1.00000000
      24     5.92336924     1.00000000
      25     9.03069923     0.00000000
      26     9.04460797     0.00000000
      27     9.48683144     0.00000000
      28     9.49545592     0.00000000
      29    10.25787407     0.00000000
      30    10.26225450     0.00000000
      31    12.45066028     0.00000000
      32    12.46991005     0.00000000
      33    12.84897243     0.00000000
      34    12.86143963     0.00000000
#  Point 3      Spin 2:     0.16666667     0.50000000     0.00000000       0.14285714
#   Band    Energy [eV]     Occupation
       1   -51.66765752     1.00000000
       2   -51.66294415     1.00000000
       3   -26.42324219     1.00000000
       4   -26.42072119     1.00000000
       5   -26.32708818     1.00000000
       6   -26.32504717     1.00000000
       7   -26.26825218     1.00000000
       8   -26.25917776     1.00000000
       9   -10.61673667     1.00000000
      10   -10.61494456     1.00000000
      11    -9.67094937     1.00000000
      12    -9.66995292     1.00000000
      13     1.75242480     1.00000000
      14     1.75530290     1.00000000
      15     3.06596764     1.00000000
      16     3.07349093     1.00000000
      17     3.54336648     1.00000000
      18     3.54378192     1.00000000
      19     4.27364705     1.00000000
      20     4.27649352     1.00000000
      21     5.26902899     1.00000000
      22     5.27719937     1.00000000
      23     5.92294198     1.00000000
      24     5.92336924     1.00000000
      25     9.03069923     0.00000000
      26     9.04460797     0.00000000
      27     9.48683144     0.00000000
      28     9.49545592     0.00000000
      29    10.25787407     0.00000000
      30    10.26225450     0.00000000
      31    12.45066028     0.00000000
      32    12.46991005     0.00000000
      33    12.84897243     0.00000000
      34    12.86143963     0.00000000
#  Point 4      Spin 1:     0.25000000     0.50000000     0.00000000       0.14285714
#   Band    Energy [eV]     Occupation
       1   -51.66767379     1.00000000
       2   -51.66295586     1.00000000
       3   -26.43631437     1.00000000
       4   -26.43428915     1.00000000
       5   -26.31346585     1.00000000
       6   -26.31191984     1.00000000
       7   -26.26821919     1.00000000
       8   -26.25914428     1.00000000
       9   -10.63219983     1.00000000
      10   -10.63029307     1.00000000
      11    -9.64709702     1.00000000
      12    -9.64602587     1.00000000
      13     1.59430177     1.00000000
      14     1.59751063     1.00000000
      15     3.03565565     1.00000000
      16     3.04311876     1.00000000
      17     3.62565760     1.00000000
      18     3.62597757     1.00000000
      19     4.57592657     1.00000000
      20     4.57872138     1.00000000
      21     5.34716198     1.00000000
      22     5.35579561     1.00000000
      23     5.75337228     1.00000000
      24     5.75429415     1.00000000
      25     8.88513686     0.00000000
      26     8.89967869     0.00000000
      27     9.36786247     0.00000000
      28     9.37642003     0.00000000
      29    10.32235493     0.00000000
      30    10.32668909     0.00000000
      31    12.37671327     0.00000000
      32    12.39771359     0.00000000
      33    12.93317348     0.00000000
      34    12.94530740     0.00000000
#  Point 4      Spin 2:     0.25000000     0.50000000     0.00000000       0.14285714
#   Band    Energy [eV]     Occupation
       1   -51.66767379     1.00000000
       2   -51.66295586     1.00000000
       3   -26.43631437     1.00000000
       4   -26.43428915     1.00000000
       5   -26.31346585     1.00000000
       6   -26.31191984     1.00000000
       7   -26.26821919     1.00000000
       8   -26.25914428     1.00000000
       9   -10.63219983     1.00000000
      10   -10.63029307     1.00000000
      11    -9.64709702     1.00000000
      12    -9.64602587     1.00000000
      13     1.59430177     1.00000000
      14     1.59751063     1.00000000
      15     3.03565565     1.00000000
      16     3.04311876     1.00000000
      17     3.62565760     1.00000000
      18     3.62597757     1.00000000
      19     4.57592657     1.00000000
      20     4.57872138     1.00000000
      21     5.34716198     1.00000000
      22     5.35579561     1.00000000
      23     5.75337228     1.00000000
      24     5.75429415     1.00000000
      25     8.88513686     0.00000000
      26     8.89967869     0.00000000
      27     9.36786247     0.00000000
      28     9.37642003     0.00000000
      29    10.32235493     0.00000000
      30    10.32668909     0.00000000
      31    12.37671327     0.00000000
      32    12.39771359     0.00000000
      33    12.93317348     0.00000000
      34    12.94530740     0.00000000
#  Point 5      Spin 1:     0.33333333     0.50000000     0.00000000       0.14285714
#   Band    Energy [eV]     Occupation
       1   -51.66771136     1.00000000
       2   -51.66298843     1.00000000
       3   -26.44704863     1.00000000
       4   -26.44529253     1.00000000
       5   -26.30239456     1.00000000
       6   -26.30111669     1.00000000
       7   -26.26818625     1.00000000
       8   -26.25911082     1.00000000
       9   -10.64689231     1.00000000
      10   -10.64489086     1.00000000
      11    -9.62315773     1.00000000
      12    -9.62203395     1.00000000
      13     1.45288888     1.00000000
      14     1.45626859     1.00000000
      15     3.00671851     1.00000000
      16     3.01412549     1.00000000
      17     3.77485094     1.00000000
      18     3.77524848     1.00000000
      19     4.75745918     1.00000000
      20     4.75937850     1.00000000
      21     5.42629175     1.00000000
      22     5.43540690     1.00000000
      23     5.64663270     1.00000000
      24     5.64875136     1.00000000
      25     8.71639130     0.00000000
      26     8.73162979     0.00000000
      27     9.25051919     0.00000000
      28     9.25910364     0.00000000
      29    10.37955471     0.00000000
      30    10.38384355     0.00000000
      31    12.30982270     0.00000000
      32    12.33247137     0.00000000
      33    13.01329959     0.00000000
      34    13.02515616     0.00000000
#  Point 5      Spin 2:     0.33333333     0.50000000     0.00000000       0.14285714
#   Band    Energy [eV]     Occupation
       1   -51.66771136     1.00000000
       2   -51.66298843     1.00000000
       3   -26.44704863     1.00000000
       4   -26.44529253     1.00000000
       5   -26.30239456     1.00000000
       6   -26.30111669     1.00000000
       7   -26.26818625     1.00000000
       8   -26.25911082     1.00000000
       9   -10.64689231     1.00000000
      10   -10.64489086     1.00000000
      11    -9.62315773     1.00000000
      12    -9.62203395     1.00000000
      13     1.45288888     1.00000000
      14     1.45626859     1.00000000
      15     3.00671851     1.00000000
      16     3.01412549     1.00000000
      17     3.77485094     1.00000000
      18     3.77524848     1.00000000
      19     4.75745918     1.00000000
      20     4.75937850     1.00000000
      21     5.42629175     1.00000000
      22     5.43540690     1.00000000
      23     5.64663270     1.00000000
      24     5.64875136     1.00000000
      25     8.71639130     0.00000000
      26     8.73162979     0.00000000
      27     9.25051919     0.00000000
      28     9.25910364     0.00000000
      29    10.37955471     0.00000000
      30    10.38384355     0.00000000
      31    12.30982270     0.00000000
      32    12.33247137     0.00000000
      33    13.01329959     0.00000000
      34    13.02515616     0.00000000
#  Point 6      Spin 1:     0.41666667     0.50000000     0.00000000       0.14285714
#   Band    Energy [eV]     Occupation
       1   -51.66775563     1.00000000
       2   -51.66302864     1.00000000
       3   -26.45397551     1.00000000
       4   -26.45235377     1.00000000
       5   -26.29526936     1.00000000
       6   -26.29412497     1.00000000
       7   -26.26816217     1.00000000
       8   -26.25908634     1.00000000
       9   -10.65722453     1.00000000
      10   -10.65516329     1.00000000
      11    -9.60530998     1.00000000
      12    -9.60415788     1.00000000
      13     1.35749256     1.00000000
      14     1.36095172     1.00000000
      15     2.98631995     1.00000000
      16     2.99368812     1.00000000
      17     3.94334511     1.00000000
      18     3.94393664     1.00000000
      19     4.73818878     1.00000000
      20     4.73902010     1.00000000
      21     5.48511421     1.00000000
      22     5.49460013     1.00000000
      23     5.67429363     1.00000000
      24     5.67773695     1.00000000
      25     8.57309261     0.00000000
      26     8.58893785     0.00000000
      27     9.16514209     0.00000000
      28     9.17380306     0.00000000
      29    10.41673806     0.00000000
      30    10.42101065     0.00000000
      31    12.26483960     0.00000000
      32    12.28863966     0.00000000
      33    13.06970498     0.00000000
      34    13.08138680     0.00000000
#  Point 6      Spin 2:     0.41666667     0.50000000     0.00000000       0.14285714
#   Band    Energy [eV]     Occupation
       1   -51.66775563     1.00000000
       2   -51.66302864     1.00000000
       3   -26.45397551     1.00000000
       4   -26.45235377     1.00000000
       5   -26.29526936     1.00000000
       6   -26.29412497     1.00000000
       7   -26.26816217     1.00000000
       8   -26.25908634     1.00000000
       9   -10.65722453     1.00000000
      10   -10.65516329     1.00000000
      11    -9.60530998     1.00000000
      12    -9.60415788     1.00000000
      13     1.35749256     1.00000000
      14     1.36095172     1.00000000
      15     2.98631995     1.00000000
      16     2.99368812     1.00000000
      17     3.94334511     1.00000000
      18     3.94393664     1.00000000
      19     4.73818878     1.00000000
      20     4.73902010     1.00000000
      21     5.48511421     1.00000000
      22     5.49460013     1.00000000
      23     5.67429363     1.00000000
      24     5.67773695     1.00000000
      25     8.57309261     0.00000000
      26     8.58893785     0.00000000
      27     9.16514209     0.00000000
      28     9.17380306     0.00000000
      29    10.41673806     0.00000000
      30    10.42101065     0.00000000
      31    12.26483960     0.00000000
      32    12.28863966     0.00000000
      33    13.06970498     0.00000000
      34    13.08138680     0.00000000
#  Point 7      Spin 1:     0.50000000     0.50000000     0.00000000       0.14285714
#   Band    Energy [eV]     Occupation
       1   -51.66777620     1.00000000
       2   -51.66304763     1.00000000
       3   -26.45635980     1.00000000
       4   -26.45477901     1.00000000
       5   -26.29281633     1.00000000
       6   -26.29171254     1.00000000
       7   -26.26815335     1.00000000
       8   -26.25907738     1.00000000
       9   -10.66092557     1.00000000
      10   -10.65884413     1.00000000
      11    -9.59865657     1.00000000
      12    -9.59749591     1.00000000
      13     1.32399626     1.00000000
      14     1.32747889     1.00000000
      15     2.97900775     1.00000000
      16     2.98636215     1.00000000
      17     4.03160707     1.00000000
      18     4.03236769     1.00000000
      19     4.67896660     1.00000000
      20     4.67956244     1.00000000
      21     5.50687756     1.00000000
      22     5.51650418     1.00000000
      23     5.71418235     1.00000000
      24     5.71805268     1.00000000
      25     8.51518272     0.00000000
      26     8.53128856     0.00000000
      27     9.13392786     0.00000000
      28     9.14262887     0.00000000
      29    10.42933360     0.00000000
      30    10.43360468     0.00000000
      31    12.24913764     0.00000000
      32    12.27334876     0.00000000
      33    13.08991801     0.00000000
      34    13.10154097     0.00000000
#  Point 7      Spin 2:     0.50000000     0.50000000     0.00000000       0.14285714
#   Band    Energy [eV]     Occupation
       1   -51.66777620     1.00000000
       2   -51.66304763     1.00000000
       3   -26.45635980     1.00000000
       4   -26.45477901     1.00000000
       5   -26.29281633     1.00000000
       6   -26.29171254     1.00000000
       7   -26.26815335     1.00000000
       8   -26.25907738     1.00000000
       9   -10.66092557     1.00000000
      10   -10.65884413     1.00000000
      11    -9.59865657     1.00000000
      12    -9.59749591     1.00000000
      13     1.32399626     1.00000000
      14     1.32747889     1.00000000
      15     2.97900775     1.00000000
      16     2.98636215     1.00000000
      17     4.03160707     1.00000000
      18     4.03236769     1.00000000
      19     4.67896660     1.00000000
      20     4.67956244     1.00000000
      21     5.50687756     1.00000000
      22     5.51650418     1.00000000
      23     5.71418235     1.00000000
      24     5.71805268     1.00000000
      25     8.51518272     0.00000000
      26     8.53128856     0.00000000
      27     9.13392786     0.00000000
      28     9.14262887     0.00000000
      29    10.42933360     0.00000000
      30    10.43360468     0.00000000
      31    12.24913764     0.00000000
      32    12.27334876     0.00000000
      33    13.08991801     0.00000000
      34    13.10154097     0.00000000
 KPOINTS| Time for k-point line                                            0.368

 KPOINTS| Number of kpoint groups                                              3
 KPOINTS| Size of each kpoint group                                            4
 KPOINTS| Number of kpoints per group                                          3
 KPOINTS| Number of k-points in set    3                                       9
 KPOINTS| In units of b-vector [2pi/Bohr]
 KPOINTS| Special point     1           M     0.500000     0.500000     0.000000
 KPOINTS| Special point     2       GAMMA     0.000000     0.000000     0.000000
#  Point 1      Spin 1:     0.50000000     0.50000000     0.00000000       0.11111111
#   Band    Energy [eV]     Occupation
       1   -51.66777620     1.00000000
       2   -51.66304763     1.00000000
       3   -26.45635980     1.00000000
       4   -26.45477901     1.00000000
       5   -26.29281633     1.00000000
       6   -26.29171254     1.00000000
       7   -26.26815335     1.00000000
       8   -26.25907738     1.00000000
       9   -10.66092557     1.00000000
      10   -10.65884413     1.00000000
      11    -9.59865657     1.00000000
      12    -9.59749591     1.00000000
      13     1.32399626     1.00000000
      14     1.32747889     1.00000000
      15     2.97900775     1.00000000
      16     2.98636215     1.00000000
      17     4.03160707     1.00000000
      18     4.03236769     1.00000000
      19     4.67896660     1.00000000
      20     4.67956244     1.00000000
      21     5.50687756     1.00000000
      22     5.51650418     1.00000000
      23     5.71418235     1.00000000
      24     5.71805268     1.00000000
      25     8.51518272     0.00000000
      26     8.53128856     0.00000000
      27     9.13392786     0.00000000
      28     9.14262887     0.00000000
      29    10.42933360     0.00000000
      30    10.43360468     0.00000000
      31    12.24913764     0.00000000
      32    12.27334876     0.00000000
      33    13.08991801     0.00000000
      34    13.10154097     0.00000000
#  Point 1      Spin 2:     0.50000000     0.50000000     0.00000000       0.11111111
#   Band    Energy [eV]     Occupation
       1   -51.66777620     1.00000000
       2   -51.66304763     1.00000000
       3   -26.45635980     1.00000000
       4   -26.45477901     1.00000000
       5   -26.29281633     1.00000000
       6   -26.29171254     1.00000000
       7   -26.26815335     1.00000000
       8   -26.25907738     1.00000000
       9   -10.66092557     1.00000000
      10   -10.65884413     1.00000000
      11    -9.59865657     1.00000000
      12    -9.59749591     1.00000000
      13     1.32399626     1.00000000
      14     1.32747889     1.00000000
      15     2.97900775     1.00000000
      16     2.98636215     1.00000000
      17     4.03160707     1.00000000
      18     4.03236769     1.00000000
      19     4.67896660     1.00000000
      20     4.67956244     1.00000000
      21     5.50687756     1.00000000
      22     5.51650418     1.00000000
      23     5.71418235     1.00000000
      24     5.71805268     1.00000000
      25     8.51518272     0.00000000
      26     8.53128856     0.00000000
      27     9.13392786     0.00000000
      28     9.14262887     0.00000000
      29    10.42933360     0.00000000
      30    10.43360468     0.00000000
      31    12.24913764     0.00000000
      32    12.27334876     0.00000000
      33    13.08991801     0.00000000
      34    13.10154097     0.00000000
#  Point 2      Spin 1:     0.43750000     0.43750000     0.00000000       0.11111111
#   Band    Energy [eV]     Occupation
       1   -51.66777214     1.00000000
       2   -51.66300741     1.00000000
       3   -26.45438257     1.00000000
       4   -26.45142695     1.00000000
       5   -26.29683224     1.00000000
       6   -26.29307287     1.00000000
       7   -26.26819833     1.00000000
       8   -26.25905208     1.00000000
       9   -10.67990925     1.00000000
      10   -10.63178963     1.00000000
      11    -9.61643759     1.00000000
      12    -9.59414440     1.00000000
      13     1.32473556     1.00000000
      14     1.40117269     1.00000000
      15     2.98879004     1.00000000
      16     2.99281567     1.00000000
      17     3.83882129     1.00000000
      18     4.04204960     1.00000000
      19     4.64562310     1.00000000
      20     4.84387416     1.00000000
      21     5.45240807     1.00000000
      22     5.52348898     1.00000000
      23     5.54988154     1.00000000
      24     5.78690207     1.00000000
      25     8.51928784     0.00000000
      26     8.65012081     0.00000000
      27     9.13308381     0.00000000
      28     9.21158982     0.00000000
      29    10.38236283     0.00000000
      30    10.45264828     0.00000000
      31    12.22329961     0.00000000
      32    12.33361185     0.00000000
      33    13.04539028     0.00000000
      34    13.10157717     0.00000000
#  Point 2      Spin 2:     0.43750000     0.43750000     0.00000000       0.11111111
#   Band    Energy [eV]     Occupation
       1   -51.66777214     1.00000000
       2   -51.66300741     1.00000000
       3   -26.45438257     1.00000000
       4   -26.45142695     1.00000000
       5   -26.29683224     1.00000000
       6   -26.29307287     1.00000000
       7   -26.26819833     1.00000000
       8   -26.25905208     1.00000000
       9   -10.67990925     1.00000000
      10   -10.63178963     1.00000000
      11    -9.61643759     1.00000000
      12    -9.59414440     1.00000000
      13     1.32473556     1.00000000
      14     1.40117269     1.00000000
      15     2.98879004     1.00000000
      16     2.99281567     1.00000000
      17     3.83882129     1.00000000
      18     4.04204960     1.00000000
      19     4.64562310     1.00000000
      20     4.84387416     1.00000000
      21     5.45240807     1.00000000
      22     5.52348898     1.00000000
      23     5.54988154     1.00000000
      24     5.78690207     1.00000000
      25     8.51928784     0.00000000
      26     8.65012081     0.00000000
      27     9.13308381     0.00000000
      28     9.21158982     0.00000000
      29    10.38236283     0.00000000
      30    10.45264828     0.00000000
      31    12.22329961     0.00000000
      32    12.33361185     0.00000000
      33    13.04539028     0.00000000
      34    13.10157717     0.00000000
#  Point 3      Spin 1:     0.37500000     0.37500000     0.00000000       0.11111111
#   Band    Energy [eV]     Occupation
       1   -51.66791327     1.00000000
       2   -51.66277388     1.00000000
       3   -26.45325408     1.00000000
       4   -26.43763967     1.00000000
       5   -26.31096588     1.00000000
       6   -26.29380182     1.00000000
       7   -26.26865568     1.00000000
       8   -26.25864760     1.00000000
       9   -10.74130460     1.00000000
      10   -10.55038119     1.00000000
      11    -9.65965788     1.00000000
      12    -9.58401565     1.00000000
      13     1.32303596     1.00000000
      14     1.60259165     1.00000000
      15     2.99571167     1.00000000
      16     3.02858285     1.00000000
      17     3.48433122     1.00000000
      18     4.03331814     1.00000000
      19     4.56763917     1.00000000
      20     5.12428343     1.00000000
      21     5.21249626     1.00000000
      22     5.31368588     1.00000000
      23     5.54885866     1.00000000
      24     5.97100902     1.00000000
      25     8.52953734     0.00000000
      26     8.89489899     0.00000000
      27     9.13068321     0.00000000
      28     9.37894736     0.00000000
      29    10.24123607     0.00000000
      30    10.51552593     0.00000000
      31    12.08466392     0.00000000
      32    12.56363896     0.00000000
      33    12.93292059     0.00000000
      34    13.10164297     0.00000000
#  Point 3      Spin 2:     0.37500000     0.37500000     0.00000000       0.11111111
#   Band    Energy [eV]     Occupation
       1   -51.66791327     1.00000000
       2   -51.66277388     1.00000000
       3   -26.45325408     1.00000000
       4   -26.43763967     1.00000000
       5   -26.31096588     1.00000000
       6   -26.29380182     1.00000000
       7   -26.26865568     1.00000000
       8   -26.25864760     1.00000000
       9   -10.74130460     1.00000000
      10   -10.55038119     1.00000000
      11    -9.65965788     1.00000000
      12    -9.58401565     1.00000000
      13     1.32303596     1.00000000
      14     1.60259165     1.00000000
      15     2.99571167     1.00000000
      16     3.02858285     1.00000000
      17     3.48433122     1.00000000
      18     4.03331814     1.00000000
      19     4.56763917     1.00000000
      20     5.12428343     1.00000000
      21     5.21249626     1.00000000
      22     5.31368588     1.00000000
      23     5.54885866     1.00000000
      24     5.97100902     1.00000000
      25     8.52953734     0.00000000
      26     8.89489899     0.00000000
      27     9.13068321     0.00000000
      28     9.37894736     0.00000000
      29    10.24123607     0.00000000
      30    10.51552593     0.00000000
      31    12.08466392     0.00000000
      32    12.56363896     0.00000000
      33    12.93292059     0.00000000
      34    13.10164297     0.00000000
#  Point 4      Spin 1:     0.31250000     0.31250000     0.00000000       0.11111111
#   Band    Energy [eV]     Occupation
       1   -51.66845628     1.00000000
       2   -51.66215819     1.00000000
       3   -26.45156586     1.00000000
       4   -26.41878720     1.00000000
       5   -26.32993160     1.00000000
       6   -26.29488797     1.00000000
       7   -26.27001979     1.00000000
       8   -26.25735356     1.00000000
       9   -10.83828608     1.00000000
      10   -10.43333225     1.00000000
      11    -9.70412101     1.00000000
      12    -9.56775717     1.00000000
      13     1.31890584     1.00000000
      14     1.85277479     1.00000000
      15     3.00609145     1.00000000
      16     3.07050644     1.00000000
      17     3.11357956     1.00000000
      18     3.90297028     1.00000000
      19     4.47990807     1.00000000
      20     5.03526847     1.00000000
      21     5.14981300     1.00000000
      22     5.40367486     1.00000000
      23     5.59716278     1.00000000
      24     6.20096462     1.00000000
      25     8.54286835     0.00000000
      26     9.10706811     0.00000000
      27     9.12709421     0.00000000
      28     9.54952024     0.00000000
      29    10.02762938     0.00000000
      30    10.61683804     0.00000000
      31    11.86816096     0.00000000
      32    12.81188787     0.00000000
      33    12.89548400     0.00000000
      34    13.10162934     0.00000000
#  Point 4      Spin 2:     0.31250000     0.31250000     0.00000000       0.11111111
#   Band    Energy [eV]     Occupation
       1   -51.66845628     1.00000000
       2   -51.66215819     1.00000000
       3   -26.45156586     1.00000000
       4   -26.41878720     1.00000000
       5   -26.32993160     1.00000000
       6   -26.29488797     1.00000000
       7   -26.27001979     1.00000000
       8   -26.25735356     1.00000000
       9   -10.83828608     1.00000000
      10   -10.43333225     1.00000000
      11    -9.70412101     1.00000000
      12    -9.56775717     1.00000000
      13     1.31890584     1.00000000
      14     1.85277479     1.00000000
      15     3.00609145     1.00000000
      16     3.07050644     1.00000000
      17     3.11357956     1.00000000
      18     3.90297028     1.00000000
      19     4.47990807     1.00000000
      20     5.03526847     1.00000000
      21     5.14981300     1.00000000
      22     5.40367486     1.00000000
      23     5.59716278     1.00000000
      24     6.20096462     1.00000000
      25     8.54286835     0.00000000
      26     9.10706811     0.00000000
      27     9.12709421     0.00000000
      28     9.54952024     0.00000000
      29    10.02762938     0.00000000
      30    10.61683804     0.00000000
      31    11.86816096     0.00000000
      32    12.81188787     0.00000000
      33    12.89548400     0.00000000
      34    13.10162934     0.00000000
#  Point 5      Spin 1:     0.25000000     0.25000000     0.00000000       0.11111111
#   Band    Energy [eV]     Occupation
       1   -51.66938690     1.00000000
       2   -51.66120699     1.00000000
       3   -26.44957425     1.00000000
       4   -26.40527343     1.00000000
       5   -26.34304719     1.00000000
       6   -26.29616068     1.00000000
       7   -26.27218135     1.00000000
       8   -26.25526005     1.00000000
       9   -10.95886422     1.00000000
      10   -10.31162310     1.00000000
      11    -9.71986044     1.00000000
      12    -9.54751282     1.00000000
      13     1.30935132     1.00000000
      14     1.99528182     1.00000000
      15     2.77049109     1.00000000
      16     3.01836691     1.00000000
      17     3.09820543     1.00000000
      18     3.74071421     1.00000000
      19     4.40187547     1.00000000
      20     5.01253681     1.00000000
      21     5.15080537     1.00000000
      22     5.66887627     1.00000000
      23     5.67551100     1.00000000
      24     6.42260866     1.00000000
      25     8.55506280     0.00000000
      26     9.12285343     0.00000000
      27     9.21171275     0.00000000
      28     9.62103055     0.00000000
      29     9.77009433     0.00000000
      30    10.75010599     0.00000000
      31    11.60170713     0.00000000
      32    12.75814012     0.00000000
      33    13.10141723     0.00000000
      34    13.26120732     0.00000000
#  Point 5      Spin 2:     0.25000000     0.25000000     0.00000000       0.11111111
#   Band    Energy [eV]     Occupation
       1   -51.66938690     1.00000000
       2   -51.66120699     1.00000000
       3   -26.44957425     1.00000000
       4   -26.40527343     1.00000000
       5   -26.34304719     1.00000000
       6   -26.29616068     1.00000000
       7   -26.27218135     1.00000000
       8   -26.25526005     1.00000000
       9   -10.95886422     1.00000000
      10   -10.31162310     1.00000000
      11    -9.71986044     1.00000000
      12    -9.54751282     1.00000000
      13     1.30935132     1.00000000
      14     1.99528182     1.00000000
      15     2.77049109     1.00000000
      16     3.01836691     1.00000000
      17     3.09820543     1.00000000
      18     3.74071421     1.00000000
      19     4.40187547     1.00000000
      20     5.01253681     1.00000000
      21     5.15080537     1.00000000
      22     5.66887627     1.00000000
      23     5.67551100     1.00000000
      24     6.42260866     1.00000000
      25     8.55506280     0.00000000
      26     9.12285343     0.00000000
      27     9.21171275     0.00000000
      28     9.62103055     0.00000000
      29     9.77009433     0.00000000
      30    10.75010599     0.00000000
      31    11.60170713     0.00000000
      32    12.75814012     0.00000000
      33    13.10141723     0.00000000
      34    13.26120732     0.00000000
#  Point 6      Spin 1:     0.18750000     0.18750000     0.00000000       0.11111111
#   Band    Energy [eV]     Occupation
       1   -51.67045549     1.00000000
       2   -51.66016721     1.00000000
       3   -26.44758113     1.00000000
       4   -26.41213698     1.00000000
       5   -26.33522724     1.00000000
       6   -26.29742271     1.00000000
       7   -26.27460375     1.00000000
       8   -26.25288914     1.00000000
       9   -11.08410779     1.00000000
      10   -10.22428190     1.00000000
      11    -9.68176056     1.00000000
      12    -9.52649252     1.00000000
      13     1.28651335     1.00000000
      14     1.89547430     1.00000000
      15     2.47995365     1.00000000
      16     3.03067615     1.00000000
      17     3.09889303     1.00000000
      18     3.79971177     1.00000000
      19     4.34067159     1.00000000
      20     4.92603927     1.00000000
      21     5.44672211     1.00000000
      22     5.78737764     1.00000000
      23     5.91489067     1.00000000
      24     6.60322897     1.00000000
      25     8.56170024     0.00000000
      26     9.11858386     0.00000000
      27     9.18543835     0.00000000
      28     9.50291679     0.00000000
      29     9.54561661     0.00000000
      30    10.90070655     0.00000000
      31    11.32797957     0.00000000
      32    12.81015487     0.00000000
      33    13.10095797     0.00000000
      34    13.59522118     0.00000000
#  Point 6      Spin 2:     0.18750000     0.18750000     0.00000000       0.11111111
#   Band    Energy [eV]     Occupation
       1   -51.67045549     1.00000000
       2   -51.66016721     1.00000000
       3   -26.44758113     1.00000000
       4   -26.41213698     1.00000000
       5   -26.33522724     1.00000000
       6   -26.29742271     1.00000000
       7   -26.27460375     1.00000000
       8   -26.25288914     1.00000000
       9   -11.08410779     1.00000000
      10   -10.22428190     1.00000000
      11    -9.68176056     1.00000000
      12    -9.52649252     1.00000000
      13     1.28651335     1.00000000
      14     1.89547430     1.00000000
      15     2.47995365     1.00000000
      16     3.03067615     1.00000000
      17     3.09889303     1.00000000
      18     3.79971177     1.00000000
      19     4.34067159     1.00000000
      20     4.92603927     1.00000000
      21     5.44672211     1.00000000
      22     5.78737764     1.00000000
      23     5.91489067     1.00000000
      24     6.60322897     1.00000000
      25     8.56170024     0.00000000
      26     9.11858386     0.00000000
      27     9.18543835     0.00000000
      28     9.50291679     0.00000000
      29     9.54561661     0.00000000
      30    10.90070655     0.00000000
      31    11.32797957     0.00000000
      32    12.81015487     0.00000000
      33    13.10095797     0.00000000
      34    13.59522118     0.00000000
#  Point 7      Spin 1:     0.12500000     0.12500000     0.00000000       0.11111111
#   Band    Energy [eV]     Occupation
       1   -51.67140590     1.00000000
       2   -51.65928116     1.00000000
       3   -26.44588950     1.00000000
       4   -26.42866977     1.00000000
       5   -26.31738547     1.00000000
       6   -26.29848306     1.00000000
       7   -26.27675155     1.00000000
       8   -26.25077149     1.00000000
       9   -11.19256135     1.00000000
      10   -10.18540384     1.00000000
      11    -9.60015957     1.00000000
      12    -9.50820591     1.00000000
      13     1.23252321     1.00000000
      14     1.68746991     1.00000000
      15     2.25975897     1.00000000
      16     3.04113745     1.00000000
      17     3.07781683     1.00000000
      18     4.01133112     1.00000000
      19     4.29777091     1.00000000
      20     4.88507557     1.00000000
      21     5.82759742     1.00000000
      22     5.92111556     1.00000000
      23     6.12816266     1.00000000
      24     6.72763697     1.00000000
      25     8.55698623     0.00000000
      26     9.03939346     0.00000000
      27     9.11492065     0.00000000
      28     9.26461958     0.00000000
      29     9.36856329     0.00000000
      30    11.04362557     0.00000000
      31    11.09588644     0.00000000
      32    12.93051964     0.00000000
      33    13.10034214     0.00000000
      34    13.85157058     0.00000000
#  Point 7      Spin 2:     0.12500000     0.12500000     0.00000000       0.11111111
#   Band    Energy [eV]     Occupation
       1   -51.67140590     1.00000000
       2   -51.65928116     1.00000000
       3   -26.44588950     1.00000000
       4   -26.42866977     1.00000000
       5   -26.31738547     1.00000000
       6   -26.29848306     1.00000000
       7   -26.27675155     1.00000000
       8   -26.25077149     1.00000000
       9   -11.19256135     1.00000000
      10   -10.18540384     1.00000000
      11    -9.60015957     1.00000000
      12    -9.50820591     1.00000000
      13     1.23252321     1.00000000
      14     1.68746991     1.00000000
      15     2.25975897     1.00000000
      16     3.04113745     1.00000000
      17     3.07781683     1.00000000
      18     4.01133112     1.00000000
      19     4.29777091     1.00000000
      20     4.88507557     1.00000000
      21     5.82759742     1.00000000
      22     5.92111556     1.00000000
      23     6.12816266     1.00000000
      24     6.72763697     1.00000000
      25     8.55698623     0.00000000
      26     9.03939346     0.00000000
      27     9.11492065     0.00000000
      28     9.26461958     0.00000000
      29     9.36856329     0.00000000
      30    11.04362557     0.00000000
      31    11.09588644     0.00000000
      32    12.93051964     0.00000000
      33    13.10034214     0.00000000
      34    13.85157058     0.00000000
#  Point 8      Spin 1:     0.06250000     0.06250000     0.00000000       0.11111111
#   Band    Energy [eV]     Occupation
       1   -51.67205196     1.00000000
       2   -51.65870816     1.00000000
       3   -26.44475797     1.00000000
       4   -26.44149075     1.00000000
       5   -26.30332406     1.00000000
       6   -26.29918617     1.00000000
       7   -26.27821325     1.00000000
       8   -26.24932283     1.00000000
       9   -11.26570047     1.00000000
      10   -10.17477825     1.00000000
      11    -9.52316555     1.00000000
      12    -9.49577998     1.00000000
      13     1.14498463     1.00000000
      14     1.55756396     1.00000000
      15     2.12252989     1.00000000
      16     3.04814057     1.00000000
      17     3.05345233     1.00000000
      18     4.19664522     1.00000000
      19     4.27261882     1.00000000
      20     4.87064551     1.00000000
      21     6.03925677     1.00000000
      22     6.18477981     1.00000000
      23     6.28223159     1.00000000
      24     6.79421135     1.00000000
      25     8.52940639     0.00000000
      26     8.85575374     0.00000000
      27     9.09652343     0.00000000
      28     9.11243905     0.00000000
      29     9.19327638     0.00000000
      30    10.94334629     0.00000000
      31    11.14768154     0.00000000
      32    13.04314591     0.00000000
      33    13.09979784     0.00000000
      34    14.00523035     0.00000000
#  Point 8      Spin 2:     0.06250000     0.06250000     0.00000000       0.11111111
#   Band    Energy [eV]     Occupation
       1   -51.67205196     1.00000000
       2   -51.65870816     1.00000000
       3   -26.44475797     1.00000000
       4   -26.44149075     1.00000000
       5   -26.30332406     1.00000000
       6   -26.29918617     1.00000000
       7   -26.27821325     1.00000000
       8   -26.24932283     1.00000000
       9   -11.26570047     1.00000000
      10   -10.17477825     1.00000000
      11    -9.52316555     1.00000000
      12    -9.49577998     1.00000000
      13     1.14498463     1.00000000
      14     1.55756396     1.00000000
      15     2.12252989     1.00000000
      16     3.04814057     1.00000000
      17     3.05345233     1.00000000
      18     4.19664522     1.00000000
      19     4.27261882     1.00000000
      20     4.87064551     1.00000000
      21     6.03925677     1.00000000
      22     6.18477981     1.00000000
      23     6.28223159     1.00000000
      24     6.79421135     1.00000000
      25     8.52940639     0.00000000
      26     8.85575374     0.00000000
      27     9.09652343     0.00000000
      28     9.11243905     0.00000000
      29     9.19327638     0.00000000
      30    10.94334629     0.00000000
      31    11.14768154     0.00000000
      32    13.04314591     0.00000000
      33    13.09979784     0.00000000
      34    14.00523035     0.00000000
#  Point 9      Spin 1:     0.00000000     0.00000000     0.00000000       0.11111111
#   Band    Energy [eV]     Occupation
       1   -51.67228029     1.00000000
       2   -51.65851446     1.00000000
       3   -26.44609330     1.00000000
       4   -26.44436038     1.00000000
       5   -26.29943198     1.00000000
       6   -26.29817241     1.00000000
       7   -26.27873001     1.00000000
       8   -26.24880926     1.00000000
       9   -11.29145959     1.00000000
      10   -10.17322157     1.00000000
      11    -9.49254960     1.00000000
      12    -9.49137944     1.00000000
      13     1.09832641     1.00000000
      14     1.52309587     1.00000000
      15     2.07592762     1.00000000
      16     3.04312471     1.00000000
      17     3.05060220     1.00000000
      18     4.26435662     1.00000000
      19     4.26638990     1.00000000
      20     4.86755286     1.00000000
      21     6.08799609     1.00000000
      22     6.34048727     1.00000000
      23     6.34298138     1.00000000
      24     6.81340481     1.00000000
      25     8.49789529     0.00000000
      26     8.77826233     0.00000000
      27     9.03527950     0.00000000
      28     9.11155940     0.00000000
      29     9.12040122     0.00000000
      30    10.89039414     0.00000000
      31    11.18595732     0.00000000
      32    13.08785148     0.00000000
      33    13.09957899     0.00000000
      34    14.05293681     0.00000000
#  Point 9      Spin 2:     0.00000000     0.00000000     0.00000000       0.11111111
#   Band    Energy [eV]     Occupation
       1   -51.67228029     1.00000000
       2   -51.65851446     1.00000000
       3   -26.44609330     1.00000000
       4   -26.44436038     1.00000000
       5   -26.29943198     1.00000000
       6   -26.29817241     1.00000000
       7   -26.27873001     1.00000000
       8   -26.24880926     1.00000000
       9   -11.29145959     1.00000000
      10   -10.17322157     1.00000000
      11    -9.49254960     1.00000000
      12    -9.49137944     1.00000000
      13     1.09832641     1.00000000
      14     1.52309587     1.00000000
      15     2.07592762     1.00000000
      16     3.04312471     1.00000000
      17     3.05060220     1.00000000
      18     4.26435662     1.00000000
      19     4.26638990     1.00000000
      20     4.86755286     1.00000000
      21     6.08799609     1.00000000
      22     6.34048727     1.00000000
      23     6.34298138     1.00000000
      24     6.81340481     1.00000000
      25     8.49789529     0.00000000
      26     8.77826233     0.00000000
      27     9.03527950     0.00000000
      28     9.11155940     0.00000000
      29     9.12040122     0.00000000
      30    10.89039414     0.00000000
      31    11.18595732     0.00000000
      32    13.08785148     0.00000000
      33    13.09957899     0.00000000
      34    14.05293681     0.00000000
 KPOINTS| Time for k-point line                                            0.141

 ENERGY| Total FORCE_EVAL ( QS ) energy [a.u.]:             -180.908773937839015

 -------------------------------------------------------------------------------
 -                                                                             -
 -                                DBCSR STATISTICS                             -
 -                                                                             -
 -------------------------------------------------------------------------------
 COUNTER                                    TOTAL       BLAS       SMM       ACC
 flops inhomo. stacks                           0       0.0%      0.0%      0.0%
 flops total                         0.000000E+00       0.0%      0.0%      0.0%
 flops max/rank                      0.000000E+00       0.0%      0.0%      0.0%
 matmuls inhomo. stacks                         0       0.0%      0.0%      0.0%
 matmuls total                                  0       0.0%      0.0%      0.0%
 number of processed stacks                     0       0.0%      0.0%      0.0%
 average stack size                                     0.0       0.0       0.0
 marketing flops                     0.000000E+00
 -------------------------------------------------------------------------------
 -                                                                             -
 -                      DBCSR MESSAGE PASSING PERFORMANCE                      -
 -                                                                             -
 -------------------------------------------------------------------------------
 ROUTINE             CALLS      AVE VOLUME [Bytes]
 MP_Bcast                1                     12.
 MP_Allreduce        10677                      8.
 MP_Alltoall         20264                   5603.
 -------------------------------------------------------------------------------

 -------------------------------------------------------------------------------
 -                                                                             -
 -                                GRID STATISTICS                              -
 -                                                                             -
 -------------------------------------------------------------------------------
 LP    KERNEL             BACKEND                              COUNT     PERCENT
 4     collocate ortho    REF                                 172952      23.42%
 4     integrate ortho    REF                                 159648      21.61%
 5     collocate ortho    REF                                 151632      20.53%
 5     integrate ortho    REF                                 139968      18.95%
 6     collocate ortho    REF                                  59488       8.05%
 6     integrate ortho    REF                                  54912       7.43%
 0     collocate general  REF                                      6       0.00%
 -------------------------------------------------------------------------------

 MEMORY| Estimated peak process memory [MiB]                                 212

 -------------------------------------------------------------------------------
 -                                                                             -
 -                         MESSAGE PASSING PERFORMANCE                         -
 -                                                                             -
 -------------------------------------------------------------------------------

 ROUTINE             CALLS      AVE VOLUME [Bytes]
 MP_Group                9
 MP_Bcast             6359                  57797.
 MP_Allreduce         6040                     22.
 MP_Sync               105
 MP_Alltoall           531
 MP_ISendRecv         2761                   8163.
 MP_Wait              7333
 MP_ISend             6216                   1376.
 MP_IRecv             8620                   1058.
 MP_Recv              2220                  14976.
 -------------------------------------------------------------------------------


 -------------------------------------------------------------------------------
 -                                                                             -
 -                           R E F E R E N C E S                               -
 -                                                                             -
 -------------------------------------------------------------------------------
 
 CP2K version 8.1, the CP2K developers group (2020).
 CP2K is freely available from https://www.cp2k.org/ .

 Kuehne,Thomas D.; Iannuzzi,Marcella; Del Ben,Mauro;
 Rybkin,Vladimir V.; Seewald,Patrick; Stein,Frederick; Laino,Teodoro;
 Khaliullin,Rustam Z.; Schuett,Ole; Schiffmann,Florian; Golze,Dorothea;
 Wilhelm,Jan; Chulkov,Sergey; Bani-Hashemian,Mohammad Hossein;
 Weber,Valery; Borstnik,Urban; Taillefumier,Mathieu;
 Jakobovits,Alice Shoshana; Lazzaro,Alfio; Pabst,Hans; Mueller,Tiziano;
 Schade,Robert; Guidon,Manuel; Andermatt,Samuel; Holmberg,Nico;
 Schenter,Gregory K.; Hehn,Anna; Bussy,Augustin; Belleflamme,Fabian;
 Tabacchi,Gloria; Gloess,Andreas; Lass,Michael; Bethune,Iain;
 Mundy,Christopher J.; Plessl,Christian; Watkins,Matt;
 VandeVondele,Joost; Krack,Matthias; Hutter,Juerg. 
 The Journal of Chemical Physics, 152 (19), (2020). 
 CP2K: An electronic structure and molecular dynamics software package -
 Quickstep: Efficient and accurate electronic structure calculations.
 https://doi.org/10.1063/5.0007045

 Togo, Atsushi; Tanaka, Isao. arXiv, 1808.01590 (2018). 
 Spglib : a software library for crystal symmetry search.
 https://doi.org/xxx

 Schuett, Ole; Messmer, Peter; Hutter, Juerg; VandeVondele, Joost. 
 Electronic Structure Calculations on Graphics Processing Units, John
 Wiley & Sons, Ltd, 173-190 (2016). 
 GPU-Accelerated Sparse Matrix-Matrix Multiplication for
 Linear Scaling Density Functional Theory.
 https://doi.org/10.1002/9781118670712.ch8

 Borstnik, U; VandeVondele, J; Weber, V; Hutter, J. 
 PARALLEL COMPUTING, 40 (5-6), 47-58 (2014). 
 Sparse matrix multiplication: The distributed block-compressed sparse
 row library.
 https://doi.org/10.1016/j.parco.2014.03.012

 Hutter, J; Iannuzzi, M; Schiffmann, F; VandeVondele, J. 
 WIREs Comput Mol Sci., 4 (1), 15-25 (2014). 
 CP2K: atomistic simulations of condensed matter systems.
 https://doi.org/10.1002/wcms.1159

 VandeVondele, J; Hutter, J. 
 JOURNAL OF CHEMICAL PHYSICS, 127 (11), 114105 (2007). 
 Gaussian basis sets for accurate calculations on molecular systems in
 gas and condensed phases.
 https://doi.org/10.1063/1.2770708

 Krack, M. 
 THEORETICAL CHEMISTRY ACCOUNTS, 114 (1-3), 145-152 (2005). 
 Pseudopotentials for H to Kr optimized for gradient-corrected
 exchange-correlation functionals.
 https://doi.org/10.1007/s00214-005-0655-y

 VandeVondele, J; Krack, M; Mohamed, F; Parrinello, M; Chassaing, T;
 Hutter, J. COMPUTER PHYSICS COMMUNICATIONS, 167 (2), 103-128 (2005). 
 QUICKSTEP: Fast and accurate density functional calculations using a
 mixed Gaussian and plane waves approach.
 https://doi.org/10.1016/j.cpc.2004.12.014

 Frigo, M; Johnson, SG. 
 PROCEEDINGS OF THE IEEE, 93 (2), 216-231 (2005). 
 The design and implementation of FFTW3.
 https://doi.org/10.1109/JPROC.2004.840301

 Hartwigsen, C; Goedecker, S; Hutter, J. 
 PHYSICAL REVIEW B, 58 (7), 3641-3662 (1998). 
 Relativistic separable dual-space Gaussian pseudopotentials from H to Rn.
 https://doi.org/10.1103/PhysRevB.58.3641

 Lippert, G; Hutter, J; Parrinello, M. 
 MOLECULAR PHYSICS, 92 (3), 477-487 (1997). 
 A hybrid Gaussian and plane wave density functional scheme.
 https://doi.org/10.1080/002689797170220

 Perdew, JP; Burke, K; Ernzerhof, M. 
 PHYSICAL REVIEW LETTERS, 77 (18), 3865-3868 (1996). 
 Generalized gradient approximation made simple.
 https://doi.org/10.1103/PhysRevLett.77.3865

 Goedecker, S; Teter, M; Hutter, J. 
 PHYSICAL REVIEW B, 54 (3), 1703-1710 (1996). 
 Separable dual-space Gaussian pseudopotentials.
 https://doi.org/10.1103/PhysRevB.54.1703


 -------------------------------------------------------------------------------
 -                                                                             -
 -                                T I M I N G                                  -
 -                                                                             -
 -------------------------------------------------------------------------------
 SUBROUTINE                       CALLS  ASD         SELF TIME        TOTAL TIME
                                MAXIMUM       AVERAGE  MAXIMUM  AVERAGE  MAXIMUM
 CP2K                                 1  1.0    0.005    0.009    9.894    9.894
 qs_energies                          1  2.0    0.002    0.006    9.806    9.808
 scf_env_do_scf                       1  3.0    0.000    0.000    7.660    8.047
 scf_env_do_scf_inner_loop           12  4.0    0.004    0.006    7.660    8.047
 do_general_diag_kp                  15  5.4    0.004    0.005    2.907    3.327
 qs_ks_update_qs_env                 12  5.0    0.000    0.000    2.576    3.189
 rebuild_ks_matrix                   12  6.0    0.000    0.000    2.488    3.101
 qs_ks_build_kohn_sham_matrix        12  7.0    0.008    0.010    2.488    3.101
 qs_rho_update_rho                   13  5.0    0.000    0.000    3.043    3.048
 calculate_rho_elec                  26  6.0    0.005    0.010    3.043    3.048
 sum_up_and_integrate                12  8.0    0.000    0.000    2.343    2.954
 integrate_v_rspace                  24  9.0    0.005    0.014    2.342    2.954
 grid_collocate_task_list            26  7.0    1.493    2.934    1.493    2.934
 grid_integrate_task_list            24 10.0    1.552    2.873    1.552    2.873
 rs_pw_transfer                     251  9.4    0.001    0.001    1.656    2.461
 mp_waitall_1                      7333  9.7    1.637    2.442    1.637    2.442
 rs_pw_transfer_RS2PW_100            27  8.9    0.004    0.004    1.627    2.431
 density_rs2pw                       26  7.0    0.001    0.001    1.544    2.297
 qs_scf_new_mos_kp                   12  5.0    0.000    0.000    1.814    2.233
 mp_alltoall_i22                   3456  8.1    1.465    2.037    1.465    2.037
 dbcsr_desymmetrize_deep           1964  6.8    0.031    0.035    1.394    1.934
 pw_transfer                        503  9.5    0.010    0.010    0.911    1.322
 fft_wrap_pw1pw2                    479 10.5    0.002    0.002    0.901    1.312
 fft3d_ps                           479 12.5    0.030    0.035    0.882    1.292
 fft_wrap_pw1pw2_100                279 11.6    0.005    0.006    0.825    1.239
 mp_alltoall_z22v                   479 14.5    0.804    1.192    0.804    1.192
 potential_pw2rs                     24 10.0    0.001    0.001    0.785    1.191
 yz_to_x                            175 13.2    0.003    0.004    0.766    1.175
 copy_dbcsr_to_fm                  1204  6.2    0.012    0.013    0.815    0.883
 write_kpoints_restart               12  5.0    0.037    0.426    0.341    0.728
 cp_cfm_geeig                        58  5.2    0.001    0.001    0.683    0.692
 dbcsr_complete_redistribute       1492  7.5    0.056    0.057    0.564    0.640
 cp_cfm_heevd                        58  6.2    0.551    0.563    0.551    0.563
 mp_sum_d                         11196  8.7    0.473    0.530    0.473    0.530
 scf_post_calculation_gpw             1  3.0    0.000    0.000    0.388    0.423
 write_available_results              1  4.0    0.000    0.000    0.387    0.423
 write_mo_dependent_results           1  5.0    0.000    0.000    0.387    0.423
 rskp_transform                     380  6.3    0.123    0.373    0.123    0.373
 init_scf_run                         1  3.0    0.000    0.000    0.317    0.326
 scf_env_initial_rho_setup            1  4.0    0.000    0.000    0.317    0.326
 qs_energies_init_hamiltonians        1  3.0    0.000    0.000    0.290    0.290
 kpoint_density_transform            12  7.0    0.004    0.004    0.258    0.266
 build_core_hamiltonian_matrix        1  4.0    0.001    0.001    0.094    0.262
 qs_env_update_s_mstruct              1  4.0    0.000    0.000    0.185    0.233
 calculate_rho_core                   1  5.0    0.000    0.000    0.169    0.221
 -------------------------------------------------------------------------------

 The number of warnings for this run is : 3
 
 -------------------------------------------------------------------------------
  **** **** ******  **  PROGRAM ENDED AT                 2021-06-03 14:36:18.644
 ***** ** ***  *** **   PROGRAM RAN ON                                   mpcl003
 **    ****   ******    PROGRAM RAN BY                                  pubo1141
 ***** **    ** ** **   PROGRAM PROCESS ID                                 10809
  **** **  *******  **  PROGRAM STOPPED IN /user/pubo1141/simulations/aiida_test
                                           s/cp2k_8.1/bands_spin_pol_low
