 DBCSR| CPU Multiplication driver                                           XSMM (U)
 DBCSR| Multrec recursion limit                                              512 (U)
 DBCSR| Multiplication stack size                                           1000 (D)
 DBCSR| Maximum elements for images                                    UNLIMITED (U)
 DBCSR| Multiplicative factor virtual images                                   1 (U)
 DBCSR| Use multiplication densification                                       T (D)
 DBCSR| Multiplication size stacks                                             3 (U)
 DBCSR| Use memory pool for CPU allocation                                     F (U)
 DBCSR| Number of 3D layers                                               SINGLE (U)
 DBCSR| Use MPI memory allocation                                              F (U)
 DBCSR| Use RMA algorithm                                                      F (U)
 DBCSR| Use Communication thread                                               T (U)
 DBCSR| Communication thread load                                             83 (D)
 DBCSR| MPI: My process id                                                     0
 DBCSR| MPI: Number of processes                                              48
 DBCSR| OMP: Current number of threads                                         2
 DBCSR| OMP: Max number of threads                                             2
 DBCSR| Split modifier for TAS multiplication algorithm                  1.0E+00 (U)


  **** **** ******  **  PROGRAM STARTED AT               2025-02-11 07:42:45.737
 ***** ** ***  *** **   PROGRAM STARTED ON                                 c0415
 **    ****   ******    PROGRAM STARTED BY                                u12591
 ***** **    ** ** **   PROGRAM PROCESS ID                                894018
  **** **  *******  **  PROGRAM STARTED IN /mnt/lustre-grete/usr/u12591/cp2k_par
                                           ser_tests/cp2k-2025.1/cell_opt_cg_spg
                                           r_medium

 CP2K| version string:                                       CP2K version 2025.1
 CP2K| source code revision number:                                  git:9635df4
 CP2K| cp2kflags: omp libint fftw3 libxc libgrpp parallel scalapack mpi_f08 xsmm
 CP2K|             spglib libdftd4 libvori libbqb hdf5
 CP2K| is freely available from                            https://www.cp2k.org/
 CP2K| Program compiled at                          Tue Jan  7 11:11:50 CET 2025
 CP2K| Program compiled on                                              glogin11
 CP2K| Program compiled for                                                local
 CP2K| Data directory path    /mnt/lustre-grete/usr/u12591/software/cp2k/cp2k-20
 CP2K| Input file name                                                 aiida.inp

 GLOBAL| Force Environment number                                              1
 GLOBAL| Basis set file name                                    BASIS_MOLOPT_UCL
 GLOBAL| Potential file name                                       POTENTIAL_UZH
 GLOBAL| MM Potential file name                                     MM_POTENTIAL
 GLOBAL| Coordinate file name                                      __STD_INPUT__
 GLOBAL| Method name                                                        CP2K
 GLOBAL| Project name                                                      aiida
 GLOBAL| Run type                                                       CELL_OPT
 GLOBAL| FFT library                                                       FFTW3
 GLOBAL| Diagonalization library                                       ScaLAPACK
 GLOBAL| DGEMM library                                                      BLAS
 GLOBAL| Orthonormality check for eigenvectors                          DISABLED
 GLOBAL| Matrix multiplication library                                 ScaLAPACK
 GLOBAL| All-to-all communication in single precision                          F
 GLOBAL| FFTs using library dependent lengths                                  T
 GLOBAL| Grid backend                                                       AUTO
 GLOBAL| Global print level                                               MEDIUM
 GLOBAL| MPI I/O enabled                                                       T
 GLOBAL| Total number of message passing processes                            48
 GLOBAL| Number of threads for this process                                    2
 GLOBAL| This output is from process                                           0
 GLOBAL| OpenMP stack size per thread (OMP_STACKSIZE)                    default
 GLOBAL| CPU model name                           Intel(R) Xeon(R) Platinum 8468
 GLOBAL| CPUID                                                              1003

 MEMORY| system memory details [Kb]
 MEMORY|                        rank 0           min           max       average
 MEMORY| MemTotal            527928756     527928756     527928756     527928756
 MEMORY| MemFree             514227652     514227652     514227652     514227652
 MEMORY| Buffers                 12196         12196         12196         12196
 MEMORY| Cached                4183460       4183460       4183460       4183460
 MEMORY| Slab                  1789964       1789964       1789964       1789964
 MEMORY| SReclaimable           264244        264244        264244        264244
 MEMORY| MemLikelyFree       518687552     518687552     518687552     518687552


 *** Fundamental physical constants (SI units) ***

 *** Literature: B. J. Mohr and B. N. Taylor,
 ***             CODATA recommended values of the fundamental physical
 ***             constants: 2006, Web Version 5.1
 ***             http://physics.nist.gov/constants

 Speed of light in vacuum [m/s]                             2.99792458000000E+08
 Magnetic constant or permeability of vacuum [N/A**2]       1.25663706143592E-06
 Electric constant or permittivity of vacuum [F/m]          8.85418781762039E-12
 Planck constant (h) [J*s]                                  6.62606896000000E-34
 Planck constant (h-bar) [J*s]                              1.05457162825177E-34
 Elementary charge [C]                                      1.60217648700000E-19
 Electron mass [kg]                                         9.10938215000000E-31
 Electron g factor [ ]                                     -2.00231930436220E+00
 Proton mass [kg]                                           1.67262163700000E-27
 Fine-structure constant                                    7.29735253760000E-03
 Rydberg constant [1/m]                                     1.09737315685270E+07
 Avogadro constant [1/mol]                                  6.02214179000000E+23
 Boltzmann constant [J/K]                                   1.38065040000000E-23
 Atomic mass unit [kg]                                      1.66053878200000E-27
 Bohr radius [m]                                            5.29177208590000E-11

 *** Conversion factors ***

 [u] -> [a.u.]                                              1.82288848426455E+03
 [Angstrom] -> [Bohr] = [a.u.]                              1.88972613288564E+00
 [a.u.] = [Bohr] -> [Angstrom]                              5.29177208590000E-01
 [a.u.] -> [s]                                              2.41888432650478E-17
 [a.u.] -> [fs]                                             2.41888432650478E-02
 [a.u.] -> [J]                                              4.35974393937059E-18
 [a.u.] -> [N]                                              8.23872205491840E-08
 [a.u.] -> [K]                                              3.15774647902944E+05
 [a.u.] -> [kJ/mol]                                         2.62549961709828E+03
 [a.u.] -> [kcal/mol]                                       6.27509468713739E+02
 [a.u.] -> [Pa]                                             2.94210107994716E+13
 [a.u.] -> [bar]                                            2.94210107994716E+08
 [a.u.] -> [atm]                                            2.90362800883016E+08
 [a.u.] -> [eV]                                             2.72113838565563E+01
 [a.u.] -> [Hz]                                             6.57968392072181E+15
 [a.u.] -> [1/cm] (wave numbers)                            2.19474631370540E+05
 [a.u./Bohr**2] -> [1/cm]                                   5.14048714338585E+03
 

 CELL_TOP| Volume [angstrom^3]:                                       799.709138
 CELL_TOP| Vector a [angstrom     7.088     0.000     0.000   |a| =     7.088191
 CELL_TOP| Vector b [angstrom     0.000    11.067     0.000   |b| =    11.067325
 CELL_TOP| Vector c [angstrom     0.000     0.000    10.194   |c| =    10.194221
 CELL_TOP| Angle (b,c), alpha [degree]:                                90.000000
 CELL_TOP| Angle (a,c), beta  [degree]:                                90.000000
 CELL_TOP| Angle (a,b), gamma [degree]:                                90.000000
 CELL_TOP| Numerically orthorhombic:                                         YES
 CELL_TOP| Periodicity                                                       XYZ

 GENERATE|  Preliminary Number of Bonds generated:                             0
 GENERATE|  Achieved consistency in connectivity generation.

 CELL| Volume [angstrom^3]:                                           799.709138
 CELL| Vector a [angstrom]:       7.088     0.000     0.000   |a| =     7.088191
 CELL| Vector b [angstrom]:       0.000    11.067     0.000   |b| =    11.067325
 CELL| Vector c [angstrom]:       0.000     0.000    10.194   |c| =    10.194221
 CELL| Angle (b,c), alpha [degree]:                                    90.000000
 CELL| Angle (a,c), beta  [degree]:                                    90.000000
 CELL| Angle (a,b), gamma [degree]:                                    90.000000
 CELL| Numerically orthorhombic:                                             YES
 CELL| Periodicity                                                           XYZ

 CELL_REF| Volume [angstrom^3]:                                      4752.129161
 CELL_REF| Vector a [angstrom    10.789     0.000     0.000   |a| =    10.788679
 CELL_REF| Vector b [angstrom     0.000    16.177     0.000   |b| =    16.177243
 CELL_REF| Vector c [angstrom     0.000     0.000    27.228   |c| =    27.227981
 CELL_REF| Angle (b,c), alpha [degree]:                                90.000000
 CELL_REF| Angle (a,c), beta  [degree]:                                90.000000
 CELL_REF| Angle (a,b), gamma [degree]:                                90.000000
 CELL_REF| Numerically orthorhombic:                                         YES
 CELL_REF| Periodicity                                                       XYZ

 *******************************************************************************
                                    Kpoints
 *******************************************************************************
 BRILLOUIN| K-point scheme                                        Monkhorst-Pack
 BRILLOUIN| K-Point grid                                             6    4    4
 BRILLOUIN| Accuracy in Symmetry determination                      0.100000E-07
 BRILLOUIN| K-Point point group symmetrization                               OFF
 BRILLOUIN| Wavefunction type                                            COMPLEX
 BRILLOUIN| List of Kpoints [2 Pi/Bohr]                                       48
 BRILLOUIN| Number           Weight            X              Y              Z
 BRILLOUIN|     1           0.02083       -0.41667       -0.37500       -0.37500
 BRILLOUIN|     2           0.02083       -0.41667       -0.37500       -0.12500
 BRILLOUIN|     3           0.02083       -0.41667       -0.37500        0.12500
 BRILLOUIN|     4           0.02083       -0.41667       -0.37500        0.37500
 BRILLOUIN|     5           0.02083       -0.41667       -0.12500       -0.37500
 BRILLOUIN|     6           0.02083       -0.41667       -0.12500       -0.12500
 BRILLOUIN|     7           0.02083       -0.41667       -0.12500        0.12500
 BRILLOUIN|     8           0.02083       -0.41667       -0.12500        0.37500
 BRILLOUIN|     9           0.02083       -0.41667        0.12500       -0.37500
 BRILLOUIN|    10           0.02083       -0.41667        0.12500       -0.12500
 BRILLOUIN|    11           0.02083       -0.41667        0.12500        0.12500
 BRILLOUIN|    12           0.02083       -0.41667        0.12500        0.37500
 BRILLOUIN|    13           0.02083       -0.41667        0.37500       -0.37500
 BRILLOUIN|    14           0.02083       -0.41667        0.37500       -0.12500
 BRILLOUIN|    15           0.02083       -0.41667        0.37500        0.12500
 BRILLOUIN|    16           0.02083       -0.41667        0.37500        0.37500
 BRILLOUIN|    17           0.02083       -0.25000       -0.37500       -0.37500
 BRILLOUIN|    18           0.02083       -0.25000       -0.37500       -0.12500
 BRILLOUIN|    19           0.02083       -0.25000       -0.37500        0.12500
 BRILLOUIN|    20           0.02083       -0.25000       -0.37500        0.37500
 BRILLOUIN|    21           0.02083       -0.25000       -0.12500       -0.37500
 BRILLOUIN|    22           0.02083       -0.25000       -0.12500       -0.12500
 BRILLOUIN|    23           0.02083       -0.25000       -0.12500        0.12500
 BRILLOUIN|    24           0.02083       -0.25000       -0.12500        0.37500
 BRILLOUIN|    25           0.02083       -0.25000        0.12500       -0.37500
 BRILLOUIN|    26           0.02083       -0.25000        0.12500       -0.12500
 BRILLOUIN|    27           0.02083       -0.25000        0.12500        0.12500
 BRILLOUIN|    28           0.02083       -0.25000        0.12500        0.37500
 BRILLOUIN|    29           0.02083       -0.25000        0.37500       -0.37500
 BRILLOUIN|    30           0.02083       -0.25000        0.37500       -0.12500
 BRILLOUIN|    31           0.02083       -0.25000        0.37500        0.12500
 BRILLOUIN|    32           0.02083       -0.25000        0.37500        0.37500
 BRILLOUIN|    33           0.02083       -0.08333       -0.37500       -0.37500
 BRILLOUIN|    34           0.02083       -0.08333       -0.37500       -0.12500
 BRILLOUIN|    35           0.02083       -0.08333       -0.37500        0.12500
 BRILLOUIN|    36           0.02083       -0.08333       -0.37500        0.37500
 BRILLOUIN|    37           0.02083       -0.08333       -0.12500       -0.37500
 BRILLOUIN|    38           0.02083       -0.08333       -0.12500       -0.12500
 BRILLOUIN|    39           0.02083       -0.08333       -0.12500        0.12500
 BRILLOUIN|    40           0.02083       -0.08333       -0.12500        0.37500
 BRILLOUIN|    41           0.02083       -0.08333        0.12500       -0.37500
 BRILLOUIN|    42           0.02083       -0.08333        0.12500       -0.12500
 BRILLOUIN|    43           0.02083       -0.08333        0.12500        0.12500
 BRILLOUIN|    44           0.02083       -0.08333        0.12500        0.37500
 BRILLOUIN|    45           0.02083       -0.08333        0.37500       -0.37500
 BRILLOUIN|    46           0.02083       -0.08333        0.37500       -0.12500
 BRILLOUIN|    47           0.02083       -0.08333        0.37500        0.12500
 BRILLOUIN|    48           0.02083       -0.08333        0.37500        0.37500
 *******************************************************************************

 *******************************************************************************
 *******************************************************************************
 **                                                                           **
 **     #####                         ##              ##                      **
 **    ##   ##            ##          ##              ##                      **
 **   ##     ##                       ##            ######                    **
 **   ##     ##  ##   ##  ##   #####  ##  ##   ####   ##    #####    #####    **
 **   ##     ##  ##   ##  ##  ##      ## ##   ##      ##   ##   ##  ##   ##   **
 **   ##  ## ##  ##   ##  ##  ##      ####     ###    ##   ######   ######    **
 **    ##  ###   ##   ##  ##  ##      ## ##      ##   ##   ##       ##        **
 **     #######   #####   ##   #####  ##  ##  ####    ##    #####   ##        **
 **           ##                                                    ##        **
 **                                                                           **
 **                                                ... make the atoms dance   **
 **                                                                           **
 **            Copyright (C) by CP2K developers group (2000-2025)             **
 **                      J. Chem. Phys. 152, 194103 (2020)                    **
 **                                                                           **
 *******************************************************************************

 DFT| Spin restricted Kohn-Sham (RKS) calculation                            RKS
 DFT| Multiplicity                                                             1
 DFT| Number of spin states                                                    1
 DFT| Charge                                                                   0
 DFT| Self-interaction correction (SIC)                                       NO
 DFT| Cutoffs: density                                              1.000000E-10
 DFT|          gradient                                             1.000000E-10
 DFT|          tau                                                  1.000000E-10
 DFT|          cutoff_smoothing_range                               0.000000E+00
 DFT| XC density smoothing                                                  NONE
 DFT| XC derivatives                                                          PW

 FUNCTIONAL| MGGA_X_SCAN:
 FUNCTIONAL| [1] J. Sun, A. Ruzsinszky, and J. P. Perdew.,  Phys. Rev. Lett. 115
 FUNCTIONAL| , 036402 (2015), doi: 10.1103/PhysRevLett.115.036402               
 FUNCTIONAL| Optional external parameters:                                      
 FUNCTIONAL|  * c1 parameter                                                    
 FUNCTIONAL|  * c2 parameter                                                    
 FUNCTIONAL|  * d parameter                                                     
 FUNCTIONAL|  * k1 parameter                                                    
 FUNCTIONAL| {scale=1.000, spin-unpolarized}                                    
 FUNCTIONAL| MGGA_C_SCAN:
 FUNCTIONAL| [1] J. Sun, A. Ruzsinszky, and J. P. Perdew.,  Phys. Rev. Lett. 115
 FUNCTIONAL| , 036402 (2015), doi: 10.1103/PhysRevLett.115.036402               
 FUNCTIONAL| {scale=1.000, spin-unpolarized}                                    


 QS| Method:                                                                 GPW
 QS| Density plane wave grid type                        NON-SPHERICAL FULLSPACE
 QS| Number of grid levels:                                                    4
 QS| Density cutoff [a.u.]:                                                275.0
 QS| Multi grid cutoff [a.u.]: 1) grid level                               275.0
 QS|                           2) grid level                                91.7
 QS|                           3) grid level                                30.6
 QS|                           4) grid level                                10.2
 QS| Grid level progression factor:                                          3.0
 QS| Relative density cutoff [a.u.]:                                        50.0
 QS| Interaction thresholds: eps_pgf_orb:                                1.0E-07
 QS|                         eps_filter_matrix:                          0.0E+00
 QS|                         eps_core_charge:                            1.0E-16
 QS|                         eps_rho_gspace:                             1.0E-14
 QS|                         eps_rho_rspace:                             1.0E-14
 QS|                         eps_gvg_rspace:                             1.0E-07
 QS|                         eps_ppl:                                    1.0E-02
 QS|                         eps_ppnl:                                   1.0E-09


 ATOMIC KIND INFORMATION

  1. Atomic kind: Te                                    Number of atoms:      16

     Orbital Basis Set                                    TZV2P-MOLOPT-SR-GTH-q6

       Number of orbital shell sets:                                           1
       Number of orbital shells:                                               8
       Number of primitive Cartesian functions:                                5
       Number of Cartesian basis functions:                                   24
       Number of spherical basis functions:                                   22
       Norm type:                                                              2

       Normalised Cartesian orbitals:

                        Set   Shell   Orbital            Exponent    Coefficient

                          1       1    2s                0.871171      -1.283555
                                                         0.666553       0.727767
                                                         0.260565       0.315590
                                                         0.171877       0.145933
                                                         0.082234      -0.112006

                          1       2    3s                0.871171      -0.113073
                                                         0.666553      -0.049522
                                                         0.260565       0.148709
                                                         0.171877      -0.027419
                                                         0.082234       0.086101

                          1       3    4s                0.871171      -0.058826
                                                         0.666553       0.095028
                                                         0.260565      -0.125580
                                                         0.171877       0.168849
                                                         0.082234       0.056377

                          1       4    3px               0.871171      -0.448888
                                                         0.666553       0.314691
                                                         0.260565       0.091584
                                                         0.171877       0.056613
                                                         0.082234       0.019970
                          1       4    3py               0.871171      -0.448888
                                                         0.666553       0.314691
                                                         0.260565       0.091584
                                                         0.171877       0.056613
                                                         0.082234       0.019970
                          1       4    3pz               0.871171      -0.448888
                                                         0.666553       0.314691
                                                         0.260565       0.091584
                                                         0.171877       0.056613
                                                         0.082234       0.019970

                          1       5    4px               0.871171       0.509800
                                                         0.666553      -0.488606
                                                         0.260565       0.059935
                                                         0.171877      -0.006230
                                                         0.082234       0.059949
                          1       5    4py               0.871171       0.509800
                                                         0.666553      -0.488606
                                                         0.260565       0.059935
                                                         0.171877      -0.006230
                                                         0.082234       0.059949
                          1       5    4pz               0.871171       0.509800
                                                         0.666553      -0.488606
                                                         0.260565       0.059935
                                                         0.171877      -0.006230
                                                         0.082234       0.059949

                          1       6    5px               0.871171       0.590563
                                                         0.666553      -0.436145
                                                         0.260565      -0.152598
                                                         0.171877       0.293256
                                                         0.082234      -0.019391
                          1       6    5py               0.871171       0.590563
                                                         0.666553      -0.436145
                                                         0.260565      -0.152598
                                                         0.171877       0.293256
                                                         0.082234      -0.019391
                          1       6    5pz               0.871171       0.590563
                                                         0.666553      -0.436145
                                                         0.260565      -0.152598
                                                         0.171877       0.293256
                                                         0.082234      -0.019391

                          1       7    4dx2              0.871171       0.508208
                                                         0.666553      -0.381585
                                                         0.260565      -0.096684
                                                         0.171877      -0.006209
                                                         0.082234      -0.006013
                          1       7    4dxy              0.871171       0.880243
                                                         0.666553      -0.660925
                                                         0.260565      -0.167462
                                                         0.171877      -0.010754
                                                         0.082234      -0.010416
                          1       7    4dxz              0.871171       0.880243
                                                         0.666553      -0.660925
                                                         0.260565      -0.167462
                                                         0.171877      -0.010754
                                                         0.082234      -0.010416
                          1       7    4dy2              0.871171       0.508208
                                                         0.666553      -0.381585
                                                         0.260565      -0.096684
                                                         0.171877      -0.006209
                                                         0.082234      -0.006013
                          1       7    4dyz              0.871171       0.880243
                                                         0.666553      -0.660925
                                                         0.260565      -0.167462
                                                         0.171877      -0.010754
                                                         0.082234      -0.010416
                          1       7    4dz2              0.871171       0.508208
                                                         0.666553      -0.381585
                                                         0.260565      -0.096684
                                                         0.171877      -0.006209
                                                         0.082234      -0.006013

                          1       8    5dx2              0.871171      -0.871718
                                                         0.666553       0.796262
                                                         0.260565      -0.095591
                                                         0.171877       0.090678
                                                         0.082234      -0.032316
                          1       8    5dxy              0.871171      -1.509859
                                                         0.666553       1.379167
                                                         0.260565      -0.165568
                                                         0.171877       0.157058
                                                         0.082234      -0.055972
                          1       8    5dxz              0.871171      -1.509859
                                                         0.666553       1.379167
                                                         0.260565      -0.165568
                                                         0.171877       0.157058
                                                         0.082234      -0.055972
                          1       8    5dy2              0.871171      -0.871718
                                                         0.666553       0.796262
                                                         0.260565      -0.095591
                                                         0.171877       0.090678
                                                         0.082234      -0.032316
                          1       8    5dyz              0.871171      -1.509859
                                                         0.666553       1.379167
                                                         0.260565      -0.165568
                                                         0.171877       0.157058
                                                         0.082234      -0.055972
                          1       8    5dz2              0.871171      -0.871718
                                                         0.666553       0.796262
                                                         0.260565      -0.095591
                                                         0.171877       0.090678
                                                         0.082234      -0.032316

       Atomic covalent radius [Angstrom]:                                  1.360

       Atomic van der Waals radius [Angstrom]:                             2.060

     GTH Potential information for                                   GTH-SCAN-q6

       Description:                       Goedecker-Teter-Hutter pseudopotential
                                           Goedecker et al., PRB 54, 1703 (1996)
                                          Hartwigsen et al., PRB 58, 3641 (1998)
                                                      Krack, TCA 114, 145 (2005)

       Gaussian exponent of the core charge distribution:               1.522390
       Electronic configuration (s p d ...):                       2   4   0   0

       Parameters of the local part of the GTH pseudopotential:

                          rloc        C1          C2          C3          C4
                        0.573089    8.669096

       Parameters of the non-local part of the GTH pseudopotential:

                   l      r(l)      h(i,j,l)

                   0    0.576027    1.400888    0.978779   -0.486307
                                    0.978779   -2.054554    1.255637
                                   -0.486307    1.255637   -0.996571
                   1    0.586761    0.757379    0.323985
                                    0.323985   -0.392534
                   2    0.813403    0.323698


 MOLECULE KIND INFORMATION


 All atoms are their own molecule, skipping detailed information


 TOTAL NUMBERS AND MAXIMUM NUMBERS

  Total number of            - Atomic kinds:                                   1
                             - Atoms:                                         16
                             - Shell sets:                                    16
                             - Shells:                                       128
                             - Primitive Cartesian functions:                 80
                             - Cartesian basis functions:                    384
                             - Spherical basis functions:                    352

  Maximum angular momentum of- Orbital basis functions:                        2
                             - Local part of the GTH pseudopotential:          0
                             - Non-local part of the GTH pseudopotential:      4


 MODULE QUICKSTEP: ATOMIC COORDINATES IN ANGSTROM

   Atom Kind Element         X             Y             Z       Z(eff)     Mass
      1    1 Te   52      5.946015     10.490184      8.353978   6.0000 127.6000
      2    1 Te   52      1.142175      0.577141      3.256869   6.0000 127.6000
      3    1 Te   52      5.946015      0.577141      1.840242   6.0000 127.6000
      4    1 Te   52      1.142175     10.490184      6.937352   6.0000 127.6000
      5    1 Te   52      3.544095      8.853801      2.548555   6.0000 127.6000
      6    1 Te   52      3.544095      2.213524      7.645665   6.0000 127.6000
      7    1 Te   52      1.787409      3.775310      6.205940   6.0000 127.6000
      8    1 Te   52      5.300781      7.292015      1.108830   6.0000 127.6000
      9    1 Te   52      1.787409      7.292015      3.988280   6.0000 127.6000
     10    1 Te   52      5.300781      3.775310      9.085390   6.0000 127.6000
     11    1 Te   52      2.403310      8.368411      8.343202   6.0000 127.6000
     12    1 Te   52      4.684880      2.698914      3.246092   6.0000 127.6000
     13    1 Te   52      2.403310      2.698914      1.851018   6.0000 127.6000
     14    1 Te   52      4.684880      8.368411      6.948128   6.0000 127.6000
     15    1 Te   52      0.000000      5.773372      2.548555   6.0000 127.6000
     16    1 Te   52      0.000000      5.293953      7.645665   6.0000 127.6000



 SCF PARAMETERS         Density guess:                                   RESTART
                        --------------------------------------------------------
                        max_scf:                                              50
                        max_scf_history:                                       0
                        max_diis:                                              4
                        --------------------------------------------------------
                        eps_scf:                                        5.00E-07
                        eps_scf_history:                                0.00E+00
                        eps_diis:                                       1.00E-01
                        eps_eigval:                                     1.00E-05
                        --------------------------------------------------------
                        level_shift [a.u.]:                             0.000000
                        added MOs                                        72    0
                        --------------------------------------------------------
                        Mixing method:                            BROYDEN_MIXING
                                                charge density mixing in g-space
                        --------------------------------------------------------
                        No outer SCF

 PW_GRID| Information for grid number                                          1
 PW_GRID| Grid distributed over                                    48 processors
 PW_GRID| Real space group dimensions                                    48    1
 PW_GRID| the grid is blocked:                                                NO
 PW_GRID| Cutoff [a.u.]                                                    275.0
 PW_GRID| spherical cutoff:                                                   NO
 PW_GRID|   Bounds   1            -77      76                Points:         154
 PW_GRID|   Bounds   2           -115     115                Points:         231
 PW_GRID|   Bounds   3           -192     192                Points:         385
 PW_GRID| Volume element (a.u.^3)  0.2341E-02     Volume (a.u.^3)     32068.9576
 PW_GRID| Grid span                                                    FULLSPACE
 PW_GRID|   Distribution                         Average         Max         Min
 PW_GRID|   G-Vectors                           285333.1      285362      285208
 PW_GRID|   G-Rays                                1852.8        1853        1852
 PW_GRID|   Real Space Points                   285333.1      355740      266805

 PW_GRID| Information for grid number                                          2
 PW_GRID| Number of the reference grid                                         1
 PW_GRID| Grid distributed over                                    48 processors
 PW_GRID| Real space group dimensions                                    48    1
 PW_GRID| the grid is blocked:                                                NO
 PW_GRID| Cutoff [a.u.]                                                     91.7
 PW_GRID| spherical cutoff:                                                   NO
 PW_GRID|   Bounds   1            -44      43                Points:          88
 PW_GRID|   Bounds   2            -66      65                Points:         132
 PW_GRID|   Bounds   3           -112     111                Points:         224
 PW_GRID| Volume element (a.u.^3)  0.1232E-01     Volume (a.u.^3)     32068.9576
 PW_GRID| Grid span                                                    FULLSPACE
 PW_GRID|   Distribution                         Average         Max         Min
 PW_GRID|   G-Vectors                            54208.0       54824       53592
 PW_GRID|   G-Rays                                 616.0         623         609
 PW_GRID|   Real Space Points                    54208.0       59136       29568

 PW_GRID| Information for grid number                                          3
 PW_GRID| Number of the reference grid                                         1
 PW_GRID| Grid distributed over                                    48 processors
 PW_GRID| Real space group dimensions                                    48    1
 PW_GRID| the grid is blocked:                                                NO
 PW_GRID| Cutoff [a.u.]                                                     30.6
 PW_GRID| spherical cutoff:                                                   NO
 PW_GRID|   Bounds   1            -27      26                Points:          54
 PW_GRID|   Bounds   2            -38      38                Points:          77
 PW_GRID|   Bounds   3            -66      65                Points:         132
 PW_GRID| Volume element (a.u.^3)  0.5843E-01     Volume (a.u.^3)     32068.9576
 PW_GRID| Grid span                                                    FULLSPACE
 PW_GRID|   Distribution                         Average         Max         Min
 PW_GRID|   G-Vectors                            11434.5       11610       11286
 PW_GRID|   G-Rays                                 211.8         215         209
 PW_GRID|   Real Space Points                    11434.5       20328       10164

 PW_GRID| Information for grid number                                          4
 PW_GRID| Number of the reference grid                                         1
 PW_GRID| Grid distributed over                                    48 processors
 PW_GRID| Real space group dimensions                                     6    8
 PW_GRID| the grid is blocked:                                                NO
 PW_GRID| Cutoff [a.u.]                                                     10.2
 PW_GRID| spherical cutoff:                                                   NO
 PW_GRID|   Bounds   1            -15      14                Points:          30
 PW_GRID|   Bounds   2            -22      21                Points:          44
 PW_GRID|   Bounds   3            -37      37                Points:          75
 PW_GRID| Volume element (a.u.^3)  0.3239         Volume (a.u.^3)     32068.9576
 PW_GRID| Grid span                                                    FULLSPACE
 PW_GRID|   Distribution                         Average         Max         Min
 PW_GRID|   G-Vectors                             2062.5        2160        1950
 PW_GRID|   G-Rays                                  68.8          72          65
 PW_GRID|   Real Space Points                     2062.5        2250        1875

 POISSON| Solver                                                        PERIODIC
 POISSON| Periodicity                                                        XYZ

 RS_GRID| Information for grid number                                          1
 RS_GRID|   Bounds   1            -77      76                Points:         154
 RS_GRID|   Bounds   2           -115     115                Points:         231
 RS_GRID|   Bounds   3           -192     192                Points:         385
 RS_GRID| Real space fully replicated
 RS_GRID| Group size                                                           1

 RS_GRID| Information for grid number                                          2
 RS_GRID|   Bounds   1            -44      43                Points:          88
 RS_GRID|   Bounds   2            -66      65                Points:         132
 RS_GRID|   Bounds   3           -112     111                Points:         224
 RS_GRID| Real space fully replicated
 RS_GRID| Group size                                                           1

 RS_GRID| Information for grid number                                          3
 RS_GRID|   Bounds   1            -27      26                Points:          54
 RS_GRID|   Bounds   2            -38      38                Points:          77
 RS_GRID|   Bounds   3            -66      65                Points:         132
 RS_GRID| Real space fully replicated
 RS_GRID| Group size                                                           1

 RS_GRID| Information for grid number                                          4
 RS_GRID|   Bounds   1            -15      14                Points:          30
 RS_GRID|   Bounds   2            -22      21                Points:          44
 RS_GRID|   Bounds   3            -37      37                Points:          75
 RS_GRID| Real space fully replicated
 RS_GRID| Group size                                                           1

 CELL_OPT| Pressure tolerance [bar]:                                       100.0
 CELL_OPT| Keep angles between the cell vectors:                             YES
 CELL_OPT| Keep cell symmetry:                                                NO
 CELL_OPT| Constraint:                                                      NONE

 *******************************************************************************
 ***                     STARTING   CELL   OPTIMIZATION                      ***
 ***                           CONJUGATE GRADIENTS                           ***
 *******************************************************************************

 -------------------------------------------------------------------------------
 ----                   SPACE GROUP SYMMETRY INFORMATION                    ----
 -------------------------------------------------------------------------------
 SPGR| SPACE GROUP NUMBER:                                                    17
 SPGR| INTERNATIONAL SYMBOL:                                              P222_1
 SPGR| POINT GROUP SYMBOL:                                                   222
 SPGR| SCHOENFLIES SYMBOL:                                                  D2^2
 SPGR| NUMBER OF SYMMETRY OPERATIONS:                                          4
 SPGR| NUMBER OF UNIQUE ROTATIONS:                                             4
 SPGR| NUMBER OF REDUCED SYMMETRY OPERATIONS:                                  4
 SPGR| NUMBER OF PARTICLES AND SYMMETRIZED PARTICLES:                 16      16
 SPGR| NUMBER OF ATOMS AND SYMMETRIZED ATOMS:                         16      16
 SPGR| NUMBER OF CORES AND SYMMETRIZED CORES:                          0       0
 SPGR| NUMBER OF SHELLS AND SYMMETRIZED SHELLS:                        0       0

 CELL| Volume [angstrom^3]:                                           799.709138
 CELL| Vector a [angstrom]:       7.088     0.000     0.000   |a| =     7.088191
 CELL| Vector b [angstrom]:       0.000    11.067     0.000   |b| =    11.067325
 CELL| Vector c [angstrom]:       0.000     0.000    10.194   |c| =    10.194221
 CELL| Angle (b,c), alpha [degree]:                                    90.000000
 CELL| Angle (a,c), beta  [degree]:                                    90.000000
 CELL| Angle (a,b), gamma [degree]:                                    90.000000
 CELL| Numerically orthorhombic:                                             YES
 CELL| Periodicity                                                           XYZ

 Number of electrons:                                                         96
 Number of occupied orbitals:                                                 48
 Number of molecular orbitals:                                               120

 Number of orbital functions:                                                352
 Number of independent orbital functions:                                    352

 Extrapolation method: initial_guess

 *** WARNING in qs_initial_guess.F:303 :: User requested to restart the    ***
 *** wavefunction from the file named: aiida-RESTART.kp. This file does    ***
 *** not exist. Please check the existence of the file or change properly  ***
 *** the value of the keyword WFN_RESTART_FILE_NAME. Calculation continues ***
 *** using ATOMIC GUESS.                                                   ***


 Atomic guess: The first density matrix is obtained in terms of atomic orbitals
               and electronic configurations assigned to each atomic kind

 Guess for atomic kind: Te

 Electronic structure
    Total number of core electrons                                         46.00
    Total number of valence electrons                                       6.00
    Total number of electrons                                              52.00
    Multiplicity                                                   not specified
    S   [  2.00  2.00  2.00  2.00] 2.00
    P   [  6.00  6.00  6.00] 4.00
    D   [ 10.00 10.00]


 *******************************************************************************
                  Iteration          Convergence                     Energy [au]
 *******************************************************************************
                          1        0.458009                      -7.861387894360
                          2        0.231916                      -7.947787374930
                          3        0.154937E-01                  -7.972348105464
                          4        0.151360E-03                  -7.972456880687
                          5        0.383072E-05                  -7.972456898031
                          6        0.622645E-08                  -7.972456898034

 Energy components [Hartree]           Total Energy ::           -7.972456898034
                                        Band Energy ::           -1.844021836137
                                     Kinetic Energy ::            2.435281614579
                                   Potential Energy ::          -10.407738512613
                                      Virial (-V/T) ::            4.273730992879
                                        Core Energy ::          -12.940503869085
                                          XC Energy ::           -1.667229009733
                                     Coulomb Energy ::            6.635275980784
                       Total Pseudopotential Energy ::          -15.444783554265
                       Local Pseudopotential Energy ::          -15.720213774553
                    Nonlocal Pseudopotential Energy ::            0.275430220289
                                        Confinement ::            0.689980706005

 Orbital energies  State     L     Occupation   Energy[a.u.]          Energy[eV]

                       1     0          2.000      -0.529382          -14.405225

                       1     1          4.000      -0.196314           -5.341984


 Total Electron Density at R=0:                                         0.001080
 Re-scaling the density matrix to get the right number of electrons
                  # Electrons              Trace(P)               Scaling factor
                           96                96.000                        1.000


 SCF WAVEFUNCTION OPTIMIZATION

  Step     Update method      Time    Convergence         Total energy    Change
  ------------------------------------------------------------------------------
     1 NoMix/Diag. 0.50E+00    1.8     0.65136692      -131.2230633998 -1.31E+02
     2 Broy./Diag. 0.50E+00    2.7     0.03098142      -131.4952442617 -2.72E-01
     3 Broy./Diag. 0.50E+00    2.6     0.01899015      -131.0668621071  4.28E-01
     4 Broy./Diag. 0.50E+00    2.6     0.00693582      -130.9516902852  1.15E-01
     5 Broy./Diag. 0.50E+00    2.6     0.00337158      -130.9564247978 -4.73E-03
     6 Broy./Diag. 0.50E+00    2.6     0.00110618      -130.9574104478 -9.86E-04
     7 Broy./Diag. 0.50E+00    2.7     0.00013615      -130.9552951215  2.12E-03
     8 Broy./Diag. 0.50E+00    2.6     0.00008025      -130.9549294474  3.66E-04
     9 Broy./Diag. 0.50E+00    2.7     0.00002179      -130.9546680151  2.61E-04
    10 Broy./Diag. 0.50E+00    2.6     0.00000880      -130.9546039023  6.41E-05
    11 Broy./Diag. 0.50E+00    2.7     0.00000359      -130.9545979942  5.91E-06
    12 Broy./Diag. 0.50E+00    2.8     0.00000084      -130.9546004405 -2.45E-06
    13 Broy./Diag. 0.50E+00    2.7     0.00000037      -130.9546007693 -3.29E-07

  *** SCF run converged in    13 steps ***


  Electronic density on regular grids:        -96.0000000000       -0.0000000000
  Core density on regular grids:               96.0000000000       -0.0000000000
  Total charge density on r-space grids:       -0.0000000000
  Total charge density g-space grids:          -0.0000000000

  Overlap energy of the core charge distribution:               0.00000002001577
  Self energy of the core charge distribution:               -283.52768307713814
  Core Hamiltonian energy:                                     57.03113461581009
  Hartree energy:                                             124.12280226636798
  Exchange-correlation energy:                                -28.58085459431766

  Total energy:                                              -130.95460076926196

 !-----------------------------------------------------------------------------!
                     Mulliken Population Analysis

 #  Atom  Element  Kind  Atomic population                           Net charge
       1     Te       1          5.998351                              0.001649
       2     Te       1          5.998353                              0.001647
       3     Te       1          5.998351                              0.001649
       4     Te       1          5.998353                              0.001647
       5     Te       1          6.011652                             -0.011652
       6     Te       1          6.011652                             -0.011652
       7     Te       1          6.018652                             -0.018652
       8     Te       1          6.018650                             -0.018650
       9     Te       1          6.018652                             -0.018652
      10     Te       1          6.018650                             -0.018650
      11     Te       1          5.968181                              0.031819
      12     Te       1          5.968181                              0.031819
      13     Te       1          5.968181                              0.031819
      14     Te       1          5.968181                              0.031819
      15     Te       1          6.017982                             -0.017982
      16     Te       1          6.017981                             -0.017981
 # Total charge                             96.000000                  0.000000

 !-----------------------------------------------------------------------------!

 !-----------------------------------------------------------------------------!
                           Hirshfeld Charges

  #Atom  Element  Kind  Ref Charge     Population                    Net charge
      1       Te     1       6.000          5.972                         0.028
      2       Te     1       6.000          5.972                         0.028
      3       Te     1       6.000          5.972                         0.028
      4       Te     1       6.000          5.972                         0.028
      5       Te     1       6.000          6.022                        -0.022
      6       Te     1       6.000          6.022                        -0.022
      7       Te     1       6.000          6.040                        -0.040
      8       Te     1       6.000          6.040                        -0.040
      9       Te     1       6.000          6.040                        -0.040
     10       Te     1       6.000          6.040                        -0.040
     11       Te     1       6.000          5.969                         0.031
     12       Te     1       6.000          5.969                         0.031
     13       Te     1       6.000          5.969                         0.031
     14       Te     1       6.000          5.969                         0.031
     15       Te     1       6.000          6.015                        -0.015
     16       Te     1       6.000          6.015                        -0.015

  Total Charge                                                           -0.000
 !-----------------------------------------------------------------------------!

 ENERGY| Total FORCE_EVAL ( QS ) energy [hartree]           -130.954601212952383

 SPGR STRESS| Symmetrized stress tensor [GPa]
 SPGR STRESS|                        x                   y                   z
 SPGR STRESS|      x        1.31638944375E-01   0.00000000000E+00  -1.93652709003E-26
 SPGR STRESS|      y        0.00000000000E+00   5.29747605397E-02   2.27710500506E-23
 SPGR STRESS|      z        0.00000000000E+00   0.00000000000E+00   5.14176075399E-02
 SPGR STRESS| 1/3 Trace                                             7.86771041514E-02
 SPGR STRESS| Determinant                                           3.58562822887E-04

 SPGR STRESS| Eigenvectors and eigenvalues of the symmetrized stress tensor [GPa]
 SPGR STRESS|                        1                   2                   3
 SPGR STRESS| Eigenvalues   5.14176075399E-02   5.29747605397E-02   1.31638944375E-01
 SPGR STRESS|      x           0.000000000000      0.000000000000      1.000000000000
 SPGR STRESS|      y           0.000000000000      1.000000000000      0.000000000000
 SPGR STRESS|      z           1.000000000000      0.000000000000      0.000000000000

 OPT| **************************************************************************
 OPT| Step number                                                              0
 OPT| Optimization method                                                     SD
 OPT| Total energy [hartree]                                     -130.9546012130
 OPT| Internal pressure [bar]                                     786.7710415142
 OPT| Used time [s]                                                       39.092
 OPT| **************************************************************************
 OPT| Estimated peak process memory [MiB]                                    839

 --------------------------
 OPTIMIZATION STEP:      1
 --------------------------

 CELL| Volume [angstrom^3]:                                           799.839376
 CELL| Vector a [angstrom]:       7.089     0.000     0.000   |a| =     7.089072
 CELL| Vector b [angstrom]:       0.000    11.068     0.000   |b| =    11.067524
 CELL| Vector c [angstrom]:       0.000     0.000    10.194   |c| =    10.194429
 CELL| Angle (b,c), alpha [degree]:                                    90.000000
 CELL| Angle (a,c), beta  [degree]:                                    90.000000
 CELL| Angle (a,b), gamma [degree]:                                    90.000000
 CELL| Numerically orthorhombic:                                             YES
 CELL| Periodicity                                                           XYZ

 -------------------------------------------------------------------------------
 ----                             MULTIGRID INFO                            ----
 -------------------------------------------------------------------------------
 count for grid        1:              0          cutoff [a.u.]          275.00
 count for grid        2:         205894          cutoff [a.u.]           91.67
 count for grid        3:         108506          cutoff [a.u.]           30.56
 count for grid        4:          18044          cutoff [a.u.]           10.19
 total gridlevel count  :         332444

 PW_GRID| Information for grid number                                          5
 PW_GRID| Grid distributed over                                    48 processors
 PW_GRID| Real space group dimensions                                    48    1
 PW_GRID| the grid is blocked:                                                NO
 PW_GRID| Cutoff [a.u.]                                                    275.0
 PW_GRID| spherical cutoff:                                                   NO
 PW_GRID|   Bounds   1            -77      76                Points:         154
 PW_GRID|   Bounds   2           -115     115                Points:         231
 PW_GRID|   Bounds   3           -192     192                Points:         385
 PW_GRID| Volume element (a.u.^3)  0.2341E-02     Volume (a.u.^3)     32068.9576
 PW_GRID| Grid span                                                    FULLSPACE
 PW_GRID|   Distribution                         Average         Max         Min
 PW_GRID|   G-Vectors                           285333.1      285362      285208
 PW_GRID|   G-Rays                                1852.8        1853        1852
 PW_GRID|   Real Space Points                   285333.1      355740      266805

 PW_GRID| Information for grid number                                          6
 PW_GRID| Number of the reference grid                                         5
 PW_GRID| Grid distributed over                                    48 processors
 PW_GRID| Real space group dimensions                                    48    1
 PW_GRID| the grid is blocked:                                                NO
 PW_GRID| Cutoff [a.u.]                                                     91.7
 PW_GRID| spherical cutoff:                                                   NO
 PW_GRID|   Bounds   1            -44      43                Points:          88
 PW_GRID|   Bounds   2            -66      65                Points:         132
 PW_GRID|   Bounds   3           -112     111                Points:         224
 PW_GRID| Volume element (a.u.^3)  0.1232E-01     Volume (a.u.^3)     32068.9576
 PW_GRID| Grid span                                                    FULLSPACE
 PW_GRID|   Distribution                         Average         Max         Min
 PW_GRID|   G-Vectors                            54208.0       54824       53592
 PW_GRID|   G-Rays                                 616.0         623         609
 PW_GRID|   Real Space Points                    54208.0       59136       29568

 PW_GRID| Information for grid number                                          7
 PW_GRID| Number of the reference grid                                         5
 PW_GRID| Grid distributed over                                    48 processors
 PW_GRID| Real space group dimensions                                    48    1
 PW_GRID| the grid is blocked:                                                NO
 PW_GRID| Cutoff [a.u.]                                                     30.6
 PW_GRID| spherical cutoff:                                                   NO
 PW_GRID|   Bounds   1            -27      26                Points:          54
 PW_GRID|   Bounds   2            -38      38                Points:          77
 PW_GRID|   Bounds   3            -66      65                Points:         132
 PW_GRID| Volume element (a.u.^3)  0.5843E-01     Volume (a.u.^3)     32068.9576
 PW_GRID| Grid span                                                    FULLSPACE
 PW_GRID|   Distribution                         Average         Max         Min
 PW_GRID|   G-Vectors                            11434.5       11610       11286
 PW_GRID|   G-Rays                                 211.8         215         209
 PW_GRID|   Real Space Points                    11434.5       20328       10164

 PW_GRID| Information for grid number                                          8
 PW_GRID| Number of the reference grid                                         5
 PW_GRID| Grid distributed over                                    48 processors
 PW_GRID| Real space group dimensions                                     6    8
 PW_GRID| the grid is blocked:                                                NO
 PW_GRID| Cutoff [a.u.]                                                     10.2
 PW_GRID| spherical cutoff:                                                   NO
 PW_GRID|   Bounds   1            -15      14                Points:          30
 PW_GRID|   Bounds   2            -22      21                Points:          44
 PW_GRID|   Bounds   3            -37      37                Points:          75
 PW_GRID| Volume element (a.u.^3)  0.3239         Volume (a.u.^3)     32068.9576
 PW_GRID| Grid span                                                    FULLSPACE
 PW_GRID|   Distribution                         Average         Max         Min
 PW_GRID|   G-Vectors                             2062.5        2160        1950
 PW_GRID|   G-Rays                                  68.8          72          65
 PW_GRID|   Real Space Points                     2062.5        2250        1875

 POISSON| Solver                                                        PERIODIC
 POISSON| Periodicity                                                        XYZ

 RS_GRID| Information for grid number                                          5
 RS_GRID|   Bounds   1            -77      76                Points:         154
 RS_GRID|   Bounds   2           -115     115                Points:         231
 RS_GRID|   Bounds   3           -192     192                Points:         385
 RS_GRID| Real space fully replicated
 RS_GRID| Group size                                                           1

 RS_GRID| Information for grid number                                          6
 RS_GRID|   Bounds   1            -44      43                Points:          88
 RS_GRID|   Bounds   2            -66      65                Points:         132
 RS_GRID|   Bounds   3           -112     111                Points:         224
 RS_GRID| Real space fully replicated
 RS_GRID| Group size                                                           1

 RS_GRID| Information for grid number                                          7
 RS_GRID|   Bounds   1            -27      26                Points:          54
 RS_GRID|   Bounds   2            -38      38                Points:          77
 RS_GRID|   Bounds   3            -66      65                Points:         132
 RS_GRID| Real space fully replicated
 RS_GRID| Group size                                                           1

 RS_GRID| Information for grid number                                          8
 RS_GRID|   Bounds   1            -15      14                Points:          30
 RS_GRID|   Bounds   2            -22      21                Points:          44
 RS_GRID|   Bounds   3            -37      37                Points:          75
 RS_GRID| Real space fully replicated
 RS_GRID| Group size                                                           1

 Number of electrons:                                                         96
 Number of occupied orbitals:                                                 48
 Number of molecular orbitals:                                               120

 Number of orbital functions:                                                352
 Number of independent orbital functions:                                    352

 Extrapolation method: initial_guess


 SCF WAVEFUNCTION OPTIMIZATION

  Step     Update method      Time    Convergence         Total energy    Change
  ------------------------------------------------------------------------------
     1 Broy./Diag. 0.50E+00    1.7     0.00066406      -130.9530558964 -1.31E+02
     2 Broy./Diag. 0.50E+00    2.6     0.00017409      -130.9535876913 -5.32E-04
     3 Broy./Diag. 0.50E+00    2.7     0.00007380      -130.9546536924 -1.07E-03
     4 Broy./Diag. 0.50E+00    2.7     0.00003737      -130.9548074052 -1.54E-04
     5 Broy./Diag. 0.50E+00    2.6     0.00001135      -130.9546797775  1.28E-04
     6 Broy./Diag. 0.50E+00    2.6     0.00000517      -130.9546395958  4.02E-05
     7 Broy./Diag. 0.50E+00    2.6     0.00000111      -130.9546333181  6.28E-06
     8 Broy./Diag. 0.50E+00    2.7     0.00000028      -130.9546356562 -2.34E-06

  *** SCF run converged in     8 steps ***


  Electronic density on regular grids:        -95.9999996774        0.0000003226
  Core density on regular grids:               96.0000000000       -0.0000000000
  Total charge density on r-space grids:        0.0000003226
  Total charge density g-space grids:           0.0000003226

  Overlap energy of the core charge distribution:               0.00000001960161
  Self energy of the core charge distribution:               -283.52768307713814
  Core Hamiltonian energy:                                     57.02343218325533
  Hartree energy:                                             124.12764312387009
  Exchange-correlation energy:                                -28.57802790578500

  Total energy:                                              -130.95463565619613

 !-----------------------------------------------------------------------------!
                     Mulliken Population Analysis

 #  Atom  Element  Kind  Atomic population                           Net charge
       1     Te       1          5.998340                              0.001660
       2     Te       1          5.998343                              0.001657
       3     Te       1          5.998340                              0.001660
       4     Te       1          5.998343                              0.001657
       5     Te       1          6.011642                             -0.011642
       6     Te       1          6.011642                             -0.011642
       7     Te       1          6.018751                             -0.018751
       8     Te       1          6.018750                             -0.018750
       9     Te       1          6.018751                             -0.018751
      10     Te       1          6.018750                             -0.018750
      11     Te       1          5.968081                              0.031919
      12     Te       1          5.968080                              0.031920
      13     Te       1          5.968081                              0.031919
      14     Te       1          5.968080                              0.031920
      15     Te       1          6.018012                             -0.018012
      16     Te       1          6.018012                             -0.018012
 # Total charge                             96.000000                  0.000000

 !-----------------------------------------------------------------------------!

 !-----------------------------------------------------------------------------!
                           Hirshfeld Charges

  #Atom  Element  Kind  Ref Charge     Population                    Net charge
      1       Te     1       6.000          5.972                         0.028
      2       Te     1       6.000          5.972                         0.028
      3       Te     1       6.000          5.972                         0.028
      4       Te     1       6.000          5.972                         0.028
      5       Te     1       6.000          6.022                        -0.022
      6       Te     1       6.000          6.022                        -0.022
      7       Te     1       6.000          6.041                        -0.041
      8       Te     1       6.000          6.041                        -0.041
      9       Te     1       6.000          6.041                        -0.041
     10       Te     1       6.000          6.041                        -0.041
     11       Te     1       6.000          5.969                         0.031
     12       Te     1       6.000          5.969                         0.031
     13       Te     1       6.000          5.969                         0.031
     14       Te     1       6.000          5.969                         0.031
     15       Te     1       6.000          6.015                        -0.015
     16       Te     1       6.000          6.015                        -0.015

  Total Charge                                                           -0.000
 !-----------------------------------------------------------------------------!

 ENERGY| Total FORCE_EVAL ( QS ) energy [hartree]           -130.954638011933042

 SPGR STRESS| Symmetrized stress tensor [GPa]
 SPGR STRESS|                        x                   y                   z
 SPGR STRESS|      x        9.07188308245E-02   0.00000000000E+00   0.00000000000E+00
 SPGR STRESS|      y        0.00000000000E+00   3.24604499359E-02   0.00000000000E+00
 SPGR STRESS|      z        0.00000000000E+00   0.00000000000E+00   2.69601293620E-02
 SPGR STRESS| 1/3 Trace                                             5.00464700408E-02
 SPGR STRESS| Determinant                                           7.93914897673E-05

 SPGR STRESS| Eigenvectors and eigenvalues of the symmetrized stress tensor [GPa]
 SPGR STRESS|                        1                   2                   3
 SPGR STRESS| Eigenvalues   2.69601293620E-02   3.24604499359E-02   9.07188308245E-02
 SPGR STRESS|      x           0.000000000000      0.000000000000      1.000000000000
 SPGR STRESS|      y           0.000000000000      1.000000000000      0.000000000000
 SPGR STRESS|      z           1.000000000000      0.000000000000      0.000000000000

 *******************************************************************************
 ***                          2PNT LINE SEARCH INFO                          ***
 ***                                                                         ***
 ***   DX (EVALUATED)=    0.006318          DX (THRESHOLD)=    0.250000      ***
 ***   DX (FITTED   )=    0.036935          DX (ACCEPTED )=    0.036935      ***
 *******************************************************************************

 OPT| **************************************************************************
 OPT| Step number                                                              1
 OPT| Optimization method                                                     SD
 OPT| Total energy [hartree]                                     -130.9546012130
 OPT| Internal pressure [bar]                                     500.4647004081
 OPT| Effective energy change [hartree]                             0.0000000000
 OPT| Decrease in energy                                                     YES
 OPT| Used time [s]                                                       25.534
 OPT|
 OPT| Maximum step size                                             0.0097379281
 OPT| Convergence limit for maximum step size                       0.0030000000
 OPT| Maximum step size is converged                                          NO
 OPT|
 OPT| RMS step size                                                 0.0050262383
 OPT| Convergence limit for RMS step size                           0.0015000000
 OPT| RMS step size is converged                                              NO
 OPT|
 OPT| Maximum gradient                                              0.0016657486
 OPT| Convergence limit for maximum gradient                        0.0000970000
 OPT| Maximum gradient is converged                                           NO
 OPT|
 OPT| RMS gradient                                                  0.0008597773
 OPT| Convergence limit for RMS gradient                            0.0003000000
 OPT| RMS gradient is converged                                               NO
 OPT|
 OPT| Pressure deviation [bar]                                    400.4647004081
 OPT| Pressure tolerance [bar]                                    100.0000000000
 OPT| Pressure is converged                                                   NO
 OPT| **************************************************************************
 OPT| Estimated peak process memory after this step [MiB]                    847

 CELL| Volume [angstrom^3]:                                           800.470625
 CELL| Vector a [angstrom]:       7.093     0.000     0.000   |a| =     7.093344
 CELL| Vector b [angstrom]:       0.000    11.068     0.000   |b| =    11.068491
 CELL| Vector c [angstrom]:       0.000     0.000    10.195   |c| =    10.195441
 CELL| Angle (b,c), alpha [degree]:                                    90.000000
 CELL| Angle (a,c), beta  [degree]:                                    90.000000
 CELL| Angle (a,b), gamma [degree]:                                    90.000000
 CELL| Numerically orthorhombic:                                             YES
 CELL| Periodicity                                                           XYZ

 -------------------------------------------------------------------------------
 ----                             MULTIGRID INFO                            ----
 -------------------------------------------------------------------------------
 count for grid        1:              0          cutoff [a.u.]          275.00
 count for grid        2:         205894          cutoff [a.u.]           91.67
 count for grid        3:         108506          cutoff [a.u.]           30.56
 count for grid        4:          18044          cutoff [a.u.]           10.19
 total gridlevel count  :         332444

 PW_GRID| Information for grid number                                          9
 PW_GRID| Grid distributed over                                    48 processors
 PW_GRID| Real space group dimensions                                    48    1
 PW_GRID| the grid is blocked:                                                NO
 PW_GRID| Cutoff [a.u.]                                                    275.0
 PW_GRID| spherical cutoff:                                                   NO
 PW_GRID|   Bounds   1            -77      76                Points:         154
 PW_GRID|   Bounds   2           -115     115                Points:         231
 PW_GRID|   Bounds   3           -192     192                Points:         385
 PW_GRID| Volume element (a.u.^3)  0.2341E-02     Volume (a.u.^3)     32068.9576
 PW_GRID| Grid span                                                    FULLSPACE
 PW_GRID|   Distribution                         Average         Max         Min
 PW_GRID|   G-Vectors                           285333.1      285362      285208
 PW_GRID|   G-Rays                                1852.8        1853        1852
 PW_GRID|   Real Space Points                   285333.1      355740      266805

 PW_GRID| Information for grid number                                         10
 PW_GRID| Number of the reference grid                                         9
 PW_GRID| Grid distributed over                                    48 processors
 PW_GRID| Real space group dimensions                                    48    1
 PW_GRID| the grid is blocked:                                                NO
 PW_GRID| Cutoff [a.u.]                                                     91.7
 PW_GRID| spherical cutoff:                                                   NO
 PW_GRID|   Bounds   1            -44      43                Points:          88
 PW_GRID|   Bounds   2            -66      65                Points:         132
 PW_GRID|   Bounds   3           -112     111                Points:         224
 PW_GRID| Volume element (a.u.^3)  0.1232E-01     Volume (a.u.^3)     32068.9576
 PW_GRID| Grid span                                                    FULLSPACE
 PW_GRID|   Distribution                         Average         Max         Min
 PW_GRID|   G-Vectors                            54208.0       54824       53592
 PW_GRID|   G-Rays                                 616.0         623         609
 PW_GRID|   Real Space Points                    54208.0       59136       29568

 PW_GRID| Information for grid number                                         11
 PW_GRID| Number of the reference grid                                         9
 PW_GRID| Grid distributed over                                    48 processors
 PW_GRID| Real space group dimensions                                    48    1
 PW_GRID| the grid is blocked:                                                NO
 PW_GRID| Cutoff [a.u.]                                                     30.6
 PW_GRID| spherical cutoff:                                                   NO
 PW_GRID|   Bounds   1            -27      26                Points:          54
 PW_GRID|   Bounds   2            -38      38                Points:          77
 PW_GRID|   Bounds   3            -66      65                Points:         132
 PW_GRID| Volume element (a.u.^3)  0.5843E-01     Volume (a.u.^3)     32068.9576
 PW_GRID| Grid span                                                    FULLSPACE
 PW_GRID|   Distribution                         Average         Max         Min
 PW_GRID|   G-Vectors                            11434.5       11610       11286
 PW_GRID|   G-Rays                                 211.8         215         209
 PW_GRID|   Real Space Points                    11434.5       20328       10164

 PW_GRID| Information for grid number                                         12
 PW_GRID| Number of the reference grid                                         9
 PW_GRID| Grid distributed over                                    48 processors
 PW_GRID| Real space group dimensions                                     6    8
 PW_GRID| the grid is blocked:                                                NO
 PW_GRID| Cutoff [a.u.]                                                     10.2
 PW_GRID| spherical cutoff:                                                   NO
 PW_GRID|   Bounds   1            -15      14                Points:          30
 PW_GRID|   Bounds   2            -22      21                Points:          44
 PW_GRID|   Bounds   3            -37      37                Points:          75
[...]
     3 Broy./Diag. 0.50E+00    2.6     0.00007629      -130.9549333610 -2.54E-04
     4 Broy./Diag. 0.50E+00    2.6     0.00001657      -130.9549675560 -3.42E-05
     5 Broy./Diag. 0.50E+00    2.6     0.00000895      -130.9549606239  6.93E-06
     6 Broy./Diag. 0.50E+00    2.6     0.00000283      -130.9549496880  1.09E-05
     7 Broy./Diag. 0.50E+00    2.6     0.00000139      -130.9549457422  3.95E-06
     8 Broy./Diag. 0.50E+00    2.7     0.00000013      -130.9549454123  3.30E-07

  *** SCF run converged in     8 steps ***


  Electronic density on regular grids:        -95.9999978384        0.0000021616
  Core density on regular grids:               96.0000038195        0.0000038195
  Total charge density on r-space grids:        0.0000059811
  Total charge density g-space grids:           0.0000064521

  Overlap energy of the core charge distribution:               0.00000001747249
  Self energy of the core charge distribution:               -283.52768307713814
  Core Hamiltonian energy:                                     57.01432066462996
  Hartree energy:                                             124.13785384982354
  Exchange-correlation energy:                                -28.57943686713097

  Total energy:                                              -130.95494541234314

 !-----------------------------------------------------------------------------!
                     Mulliken Population Analysis

 #  Atom  Element  Kind  Atomic population                           Net charge
       1     Te       1          5.998525                              0.001475
       2     Te       1          5.998500                              0.001500
       3     Te       1          5.998601                              0.001399
       4     Te       1          5.998499                              0.001501
       5     Te       1          6.012372                             -0.012372
       6     Te       1          6.012501                             -0.012501
       7     Te       1          6.019547                             -0.019547
       8     Te       1          6.019488                             -0.019488
       9     Te       1          6.019538                             -0.019538
      10     Te       1          6.019415                             -0.019415
      11     Te       1          5.966234                              0.033766
      12     Te       1          5.966226                              0.033774
      13     Te       1          5.966234                              0.033766
      14     Te       1          5.966209                              0.033791
      15     Te       1          6.019048                             -0.019048
      16     Te       1          6.019066                             -0.019066
 # Total charge                             96.000000                  0.000000

 !-----------------------------------------------------------------------------!

 !-----------------------------------------------------------------------------!
                           Hirshfeld Charges

  #Atom  Element  Kind  Ref Charge     Population                    Net charge
      1       Te     1       6.000          5.970                         0.030
      2       Te     1       6.000          5.970                         0.030
      3       Te     1       6.000          5.970                         0.030
      4       Te     1       6.000          5.970                         0.030
      5       Te     1       6.000          6.023                        -0.023
      6       Te     1       6.000          6.023                        -0.023
      7       Te     1       6.000          6.044                        -0.044
      8       Te     1       6.000          6.044                        -0.044
      9       Te     1       6.000          6.044                        -0.044
     10       Te     1       6.000          6.044                        -0.044
     11       Te     1       6.000          5.967                         0.033
     12       Te     1       6.000          5.967                         0.033
     13       Te     1       6.000          5.967                         0.033
     14       Te     1       6.000          5.967                         0.033
     15       Te     1       6.000          6.015                        -0.015
     16       Te     1       6.000          6.015                        -0.015

  Total Charge                                                            0.000
 !-----------------------------------------------------------------------------!

 ENERGY| Total FORCE_EVAL ( QS ) energy [hartree]           -130.954945412343136

 -------------------------------------------------------------------------------
 -                                                                             -
 -                                DBCSR STATISTICS                             -
 -                                                                             -
 -------------------------------------------------------------------------------
 COUNTER                                    TOTAL       BLAS       SMM       ACC
 flops inhomo. stacks                           0       0.0%      0.0%      0.0%
 flops total                         0.000000E+00       0.0%      0.0%      0.0%
 flops max/rank                      0.000000E+00       0.0%      0.0%      0.0%
 matmuls inhomo. stacks                         0       0.0%      0.0%      0.0%
 matmuls total                                  0       0.0%      0.0%      0.0%
 number of processed stacks                     0       0.0%      0.0%      0.0%
 average stack size                                     0.0       0.0       0.0
 marketing flops                     0.000000E+00
 -------------------------------------------------------------------------------
 -                                                                             -
 -                      DBCSR MESSAGE PASSING PERFORMANCE                      -
 -                                                                             -
 -------------------------------------------------------------------------------
 ROUTINE             CALLS      AVE VOLUME [Bytes]
 MP_Bcast                1                     12.
 MP_Allreduce        37048                      8.
 MP_Alltoall       1004864                  23809.
 -------------------------------------------------------------------------------

 -------------------------------------------------------------------------------
 -                                                                             -
 -                                DBM STATISTICS                               -
 -                                                                             -
 -------------------------------------------------------------------------------
    M  x    N  x    K                                          COUNT     PERCENT
 -------------------------------------------------------------------------------

 -------------------------------------------------------------------------------
 -                                                                             -
 -                                GRID STATISTICS                              -
 -                                                                             -
 -------------------------------------------------------------------------------
 LP    KERNEL             BACKEND                              COUNT     PERCENT
 4     collocate ortho    CPU                                4798082      25.04%
 6     collocate ortho    CPU                                4798082      25.04%
 4     integrate ortho    CPU                                4282504      22.35%
 6     integrate ortho    CPU                                4282504      22.35%
 7     integrate ortho    CPU                                 497696       2.60%
 9     integrate ortho    CPU                                 497696       2.60%
 0     collocate general  CPU                                    928       0.00%
 0     integrate general  CPU                                    464       0.00%
 3     integrate general  CPU                                    448       0.00%
 -------------------------------------------------------------------------------

 MEMORY| Estimated peak process memory [MiB]                                 909

 -------------------------------------------------------------------------------
 ----                             MULTIGRID INFO                            ----
 -------------------------------------------------------------------------------
 count for grid        1:              0          cutoff [a.u.]          275.00
 count for grid        2:         206010          cutoff [a.u.]           91.67
 count for grid        3:         108660          cutoff [a.u.]           30.56
 count for grid        4:          18092          cutoff [a.u.]           10.19
 total gridlevel count  :         332762

 -------------------------------------------------------------------------------
 -                                                                             -
 -                         MESSAGE PASSING PERFORMANCE                         -
 -                                                                             -
 -------------------------------------------------------------------------------

 ROUTINE             CALLS      AVE VOLUME [Bytes]
 MP_Group              117
 MP_Bcast           448538                   5220.
 MP_Allreduce        22280                   2592.
 MP_Sync               116
 MP_Alltoall          8352                8418207.
 MP_SendRecv        104246                 926449.
 MP_ISendRecv       103823                 925767.
 MP_Wait            393709
 MP_comm_split           2
 MP_ISend           279978                  12790.
 MP_IRecv           481536                   5533.
 -------------------------------------------------------------------------------


 -------------------------------------------------------------------------------
 -                                                                             -
 -                           R E F E R E N C E S                               -
 -                                                                             -
 -------------------------------------------------------------------------------
 
 CP2K version 2025.1, the CP2K developers group (2025).
 CP2K is freely available from https://www.cp2k.org/ .
 
 T. D. Kuehne, M. Iannuzzi, M. Del Ben, V. V. Rybkin, P. Seewald, F. Stein, T. 
 Laino, R. Z. Khaliullin, O. Schuett, F. Schiffmann, D. Golze, J. Wilhelm, S. 
 Chulkov, M. H. Bani-Hashemian, V. Weber, U. Borstnik, M. Taillefumier, A. S. 
 Jakobovits, A. Lazzaro, H. Pabst, T. Mueller, R. Schade, M. Guidon, S. 
 Andermatt, N. Holmberg, G. K. Schenter, A. Hehn, A. Bussy, F. Belleflamme, G. 
 Tabacchi, A. Gloess, M. Lass, I. Bethune, C. J. Mundy, C. Plessl, M. Watkins, 
 J. VandeVondele, M. Krack, J. Hutter.
 J. Chem. Phys. 152, 194103 (2020).
 CP2K: An electronic structure and molecular dynamics software package - 
 Quickstep: Efficient and accurate electronic structure calculations.
 https://doi.org/10.1063/5.0007045

 S. Lehtola, C. Steigemann, M. J. T. Oliveira, M. A. L. Marques.
 SoftwareX 7, 1-5 (2018).
 Recent developments in libxc - A comprehensive library of functionals for 
 density functional theory.
 https://doi.org/10.1016/j.softx.2017.11.002

 A. Togo, I. Tanaka.
 arXiv, 1808.01590 (2018).
 Spglib : a software library for crystal symmetry search.

 O. Schuett, P. Messmer, J. Hutter, J. VandeVondele.
 Electronic Structure Calculations on Graphics Processing Units, 173-190 (2016).
 GPU-Accelerated Sparse Matrix-Matrix Multiplication for Linear Scaling Density 
 Functional Theory.
 https://doi.org/10.1002/9781118670712.ch8

 A. Heinecke, G. Henry, M. Hutchinson, H. Pabst.
 Proceedings of Intl. Supercomputing Conference, 981-991 (2016).
 LIBXSMM: Accelerating Small Matrix Multiplications by Runtime Code Generation.
 https://doi.org/10.1109/SC.2016.83

 J. Hutter, M. Iannuzzi, F. Schiffmann, J. VandeVondele.
 WIREs Comput Mol Sci. 4, 15-25 (2014).
 CP2K: atomistic simulations of condensed matter systems.
 https://doi.org/10.1002/wcms.1159

 U. Borstnik, J. VandeVondele, V. Weber, J. Hutter.
 Parallel Comput. 40, 47-58 (2014).
 Sparse matrix multiplication: The distributed block-compressed sparse row 
 library.
 https://doi.org/10.1016/j.parco.2014.03.012

 M. A. L. Marques, M. J. T. Oliveira, T. Burnus.
 Comput. Phys. Commun. 183, 2272-2281 (2012).
 LIBXC: A library of exchange and correlation functionals for density functional 
 theory.
 https://doi.org/10.1016/j.cpc.2012.05.007

 J. VandeVondele, J. Hutter.
 J. Chem. Phys. 127, 114105 (2007).
 Gaussian basis sets for accurate calculations on molecular systems in gas and 
 condensed phases.
 https://doi.org/10.1063/1.2770708

 J. VandeVondele, M. Krack, F. Mohamed, M. Parrinello, T. Chassaing, J. Hutter.
 Comput. Phys. Commun. 167, 103-128 (2005).
 QUICKSTEP: Fast and accurate density functional calculations using a mixed 
 Gaussian and plane waves approach.
 https://doi.org/10.1016/j.cpc.2004.12.014

 M. Krack.
 Theor. Chem. Acc. 114, 145-152 (2005).
 Pseudopotentials for H to Kr optimized for gradient-corrected 
 exchange-correlation functionals.
 https://doi.org/10.1007/s00214-005-0655-y

 M. Frigo, S. G. Johnson.
 Proc. IEEE 93, 216-231 (2005).
 The design and implementation of FFTW3.
 https://doi.org/10.1109/JPROC.2004.840301

 C. Hartwigsen, S. Goedecker, J. Hutter.
 Phys. Rev. B 58, 3641-3662 (1998).
 Relativistic separable dual-space Gaussian pseudopotentials from H to Rn.
 https://doi.org/10.1103/PhysRevB.58.3641

 G. Lippert, J. Hutter, M. Parrinello.
 Mol. Phys. 92, 477-487 (1997).
 A hybrid Gaussian and plane wave density functional scheme.
 https://doi.org/10.1080/002689797170220

 S. Goedecker, M. Teter, J. Hutter.
 Phys. Rev. B 54, 1703-1710 (1996).
 Separable dual-space Gaussian pseudopotentials.
 https://doi.org/10.1103/PhysRevB.54.1703


 -------------------------------------------------------------------------------
 -                                                                             -
 -                                T I M I N G                                  -
 -                                                                             -
 -------------------------------------------------------------------------------
 SUBROUTINE                       CALLS  ASD         SELF TIME        TOTAL TIME
                                MAXIMUM       AVERAGE  MAXIMUM  AVERAGE  MAXIMUM
 CP2K                                 1  1.0    0.069    0.074  763.051  763.053
 cp_cell_opt                          1  2.0    0.003    0.004  762.694  762.696
 geoopt_cg                            1  3.0    0.000    0.001  762.691  762.693
 cp_cg_main                           1  4.0    0.004    0.005  762.688  762.690
 cp_eval_at                          29  6.0    0.006    0.011  762.487  762.489
 qs_forces                           28  7.0    0.006    0.006  739.398  739.401
 qs_energies                         29  7.9    0.010    0.011  695.071  695.077
 scf_env_do_scf                      29  8.9    0.002    0.003  640.019  640.072
 scf_env_do_scf_inner_loop          241  9.8    0.019    0.033  640.017  640.068
 rebuild_ks_matrix                  269 11.5    0.001    0.002  366.305  392.078
 qs_ks_build_kohn_sham_matrix       269 12.5    0.052    0.058  366.303  392.077
 qs_ks_update_qs_env                241 10.8    0.002    0.002  312.270  329.788
 cg_linmin                           14  5.0    0.000    0.000  325.204  325.205
 linmin_2pnt                         14  6.0    0.000    0.001  325.204  325.205
 sum_up_and_integrate               269 13.5    0.005    0.005  274.057  299.758
 integrate_v_rspace                 538 14.5    0.043    0.069  273.852  299.562
 qs_rho_update_rho_low              270 10.8    0.002    0.002  238.042  238.054
 calculate_rho_elec                 540 11.8    0.580    0.738  238.040  238.051
 potential_pw2rs                    538 15.5    0.064    0.070  219.454  231.642
 transfer_pw2rs                    2209 16.4    0.014    0.015  210.537  210.831
 transfer_pw2rs_280                 595 17.1  143.088  147.842  166.267  169.194
 density_rs2pw                      540 12.8    0.024    0.030  134.896  160.570
 transfer_rs2pw                    2218 13.8    0.022    0.040  121.261  147.257
 transfer_rs2pw_280                 598 14.7   46.946   48.654  103.916  130.774
 grid_collocate_task_list           540 12.8  101.349  126.126  101.349  126.126
 qs_scf_new_mos_kp                  241 10.8    0.002    0.003  100.195  114.988
 do_general_diag_kp                 241 11.8    0.148    0.159  100.193  114.985
 fft_wrap_pw1pw2                   7245 15.5    0.109    0.120   94.828  107.713
 fft_wrap_pw1pw2_280               4011 16.7    3.977    4.266   89.576  103.077
 grid_integrate_task_list           538 15.5   54.353   94.316   54.353   94.316
 mp_sendrecv_dv                  104246 15.8   68.134   92.629   68.134   92.629
 fft3d_ps                          7245 17.5   33.389   39.163   77.548   89.033
 qs_vxc_create                      269 13.5    0.005    0.006   74.286   74.546
 xc_vxc_pw_create                   269 14.5    2.743    3.352   74.282   74.542
 qs_ks_update_qs_env_forces          28  8.0    0.000    0.000   54.757   63.008
 mp_alltoall_i22                 170564 14.6   31.498   50.273   31.498   50.273
 dbcsr_desymmetrize_deep          94542 13.3    1.061    1.256   32.597   49.943
 xc_rho_set_and_dset_create         269 15.5    0.504    0.548   42.786   49.354
 mp_alltoall_z22v                  7245 19.5   36.417   48.519   36.417   48.519
 mp_waitall_1                    393709 15.8   36.086   44.401   36.086   44.401
 yz_to_x                           2994 18.3    2.834    3.556   31.152   44.166
 xc_pw_derive                      1614 16.5    0.017    0.021   39.179   41.481
 transfer_pw2rs_100                 538 17.5   20.804   21.381   37.608   39.836
 cp_fm_start_copy_general         72096 13.1    1.491    3.308   37.913   38.188
 mp_allgather_i                  144192 14.1   34.159   35.153   34.159   35.153
 xc_functional_eval                 538 16.5    0.004    0.005   25.030   31.905
 libxc_lda_eval                     538 17.5   25.021   31.898   25.027   31.902
 init_scf_run                        29  8.9    0.001    0.002   30.875   30.893
 scf_env_initial_rho_setup           29  9.9    0.001    0.001   30.874   30.892
 kpoint_density_transform           269 12.5    0.064    0.067   29.922   29.943
 xc_pw_divergence                   269 15.5    0.008    0.009   27.837   29.828
 copy_dbcsr_to_fm                 48270 12.8    0.270    0.313   18.755   20.860
 mp_isendrecv_dv                 103823 18.4    8.264   20.777    8.264   20.777
 dbcsr_complete_redistribute      76022 14.0    1.999    3.096   17.290   18.533
 mp_sum_dm                         1179  8.8    8.784   15.546    8.784   15.546
 transfer_rs2pw_100                 540 14.8    5.245    5.464   13.532   15.344
 -------------------------------------------------------------------------------

 The number of warnings for this run is : 1
 
 -------------------------------------------------------------------------------
  **** **** ******  **  PROGRAM ENDED AT                 2025-02-11 07:55:30.473
 ***** ** ***  *** **   PROGRAM RAN ON                                     c0415
 **    ****   ******    PROGRAM RAN BY                                    u12591
 ***** **    ** ** **   PROGRAM PROCESS ID                                894018
  **** **  *******  **  PROGRAM STOPPED IN /mnt/lustre-grete/usr/u12591/cp2k_par
                                           ser_tests/cp2k-2025.1/cell_opt_cg_spg
                                           r_medium
