     192
 i =        0, time =        0.000, E =     -1103.3567513797
  O         3.8585873763       -4.7533175213        5.5091974759
  H         4.2109950951       -5.5568705259        5.9994585948
  H         3.0947084560       -4.3172663108        5.9135950646
  O        -3.5460761891        1.7456237131        4.2880212708
  H        -3.3572582677        0.8369944362        4.1529456220
  H        -3.6089143450        1.9436976972        5.2698392012
  O         4.5691359319        2.9343274990       -7.0999718127
  H         3.6785962350        3.2291072409       -6.8049831901
  H         4.4953665356        2.7845914189       -8.0458027314
  O        -2.5731801314       -0.1063102257       -3.4147140374
  H        -2.0386687011        0.4155234251       -2.8289645480
  H        -1.8891606976       -0.6148201666       -3.9280631618
  O        -3.7625034284       -7.7105940327        5.6279977389
  H        -4.6343536576       -7.4199803039        5.9874790347
  H        -3.8520633915       -7.6348492192        4.6607806353
  O        -6.7131259426       -0.0759204976        2.3176844292
  H        -6.0415850051       -0.4560400697        3.0079983076
  H        -6.2582643134        0.7343068494        1.9582947358
  O         4.0109535867       -5.5817692668       -0.4126912859
  H         3.3321311866       -5.6166906662        0.3076935926
  H         3.9051538355       -4.7533442556       -0.8369521875
  O        -2.6692626967       -3.0810510613       -1.2259349448
  H        -3.2486322997       -2.4491708867       -1.7386930105
  H        -2.1918958173       -2.5988518360       -0.5763067756
  O         5.4576244064       -3.1688044689        3.1002596795
  H         4.6854987571       -3.2457995297        3.6224179934
  H         5.2579372917       -3.0507495002        2.1311396222
  O         2.0078792352        3.8025888294       -6.6441198936
  H         1.3809036112        3.0702729257       -6.8038689306
  H         1.8366067800        4.0666291804       -5.7099975874
  O         4.0608830110       -3.8929207302       -3.0596772434
  H         3.2332712864       -3.7206669725       -3.6953758544
  H         4.3366899606       -2.9825098616       -2.9848217710
  O         1.9773593054       -1.8442291306        1.0225667179
  H         1.5650644885       -2.4713604568        1.6495937537
  H         1.6194813185       -1.9133123969        0.0656946095
  O         0.7338447631       -5.7432877136       -5.0100685957
  H         1.4795768454       -6.3299226862       -4.8189325814
  H         0.4491149358       -5.7095685669       -5.9473559749
  O        -7.5166459589       -8.6781062088       -3.2371569882
  H        -7.8737663294       -9.6027219294       -3.0814153209
  H        -7.1323941392       -8.5788960418       -2.3467663280
  O         3.0089956358       -1.6206934676        5.1704516391
  H         3.8547864750       -1.8022862145        5.6866350548
  H         3.1700832113       -0.8185381416        4.6102432456
  O        -0.0943492744        1.8634710749       -6.6861347029
  H         0.2389831969        1.0552334471       -6.3170377387
  H        -0.0534604238        1.7370469556       -7.6527831571
  O         1.3803001006       -3.0815472275        3.6598466091
  H         2.0052752091       -2.6793618758        4.3169228939
  H         1.0973942250       -3.9666380514        3.9813401483
  O        -2.3279129364        2.8060791527        2.2347417439
  H        -1.6230445751        2.1315230876        2.1866163236
  H        -2.7609234795        2.5819568350        3.0889511952
  O         0.8745131234       -0.6611187482       -5.6004046460
  H         1.7204015713       -0.8189656405       -6.1098612966
  H         1.1964117837       -0.2405057963       -4.7549061774
  O        -1.1866462102       -0.7164030048        0.2437849238
  H        -1.1340006348        0.2325710411       -0.0726156939
  H        -0.9335438317       -0.7854778370        1.2011335414
  O        -3.8861935106       -9.0129285534       -3.1318571683
  H        -4.4983492231       -8.2801255892       -3.2160220896
  H        -2.9183857578       -8.7301395642       -3.1224505015
  O         4.9784414381        4.5574106629        2.1605978288
  H         4.5742506248        4.0690251974        1.4375040342
  H         4.2106782789        4.9079438424        2.6736093641
  O         4.2074812608        1.0294752439       -3.2134938111
  H         4.6250866171        0.8524308220       -4.0648666086
  H         4.4221519308        0.1920392568       -2.7364360799
  O        -5.2106345443       -6.3463699492       -2.6806456410
  H        -5.3801630197       -6.0861826108       -1.7737611737
  H        -5.9985546753       -6.0894306119       -3.1521879087
  O         4.8272006144       -2.1493089974        0.6957555837
  H         5.1698114049       -1.3843105780        1.1680731517
  H         3.8731403616       -2.0152767607        0.7901517878
  O         2.1084974235        0.9406557281        1.6964699575
  H         2.7635704789        1.5106519967        1.2582480434
  H         2.3138417141        0.0791504768        1.2943222699
  O        -5.7579045611       -5.0935991816       -0.3613728277
  H        -6.6922016300       -5.4438912590       -0.2434456391
  H        -5.9339541154       -4.1852263482       -0.6893230982
  O        -4.8501183696        4.6347512586        2.6323657871
  H        -5.8186923573        4.7291496971        2.3648078237
  H        -4.7686962808        3.6685062675        2.2489112658
  O         5.5123889390        0.8523825517       -5.5927914459
  H         6.4009274201        1.1961666201       -5.3454982775
  H         5.0326268549        1.4571097750       -6.2820870000
  O         0.7365184732       -1.9176950430       -1.2724577473
  H         0.4366627686       -2.6685959517       -1.8452499204
  H        -0.0280723827       -1.6346960324       -0.7323636982
  O         3.9005939808        2.6221972296        0.0824981180
  H         4.6603628952        2.4136405159       -0.4885023274
  H         3.3619307241        3.2465911837       -0.4599512808
  O        -1.0991624885       -1.3693412589        2.9498880034
  H        -0.3354058556       -2.0369012425        3.1075024163
  H        -1.8473458549       -1.9916364646        3.2032143743
  O         2.0718451094       -5.6501678174        1.3629079156
  H         1.2043618452       -6.1369822674        1.2560686630
  H         2.4507495844       -5.8859092245        2.2558212721
  O        -0.6280310316       -3.8273493362       -2.8460859716
  H        -1.5583639221       -3.7769636412       -2.5811140145
  H        -0.5112292363       -4.5879523025       -3.3982225959
  O        -5.2918433010        2.0621670074        1.4353011132
  H        -4.4549447831        1.8776050679        1.9014549175
  H        -5.1335936869        1.9198214761        0.4197228743
  O         1.9599719653       -3.4245632717       -5.2673604360
  H         1.3225562775       -4.2123092010       -5.0388832852
  H         1.2999292168       -2.7711468268       -5.4986783863
  O        -1.1933205846        3.9368513830       -3.3737465077
  H        -1.2003012694        3.9803649971       -4.3582935942
  H        -0.7402505311        4.6500956055       -2.9405594580
  O        -5.4243979802       -5.0029807582        4.2784625506
  H        -6.1164034705       -4.5127003053        3.7817315683
  H        -4.7403199519       -5.3498607764        3.6920944114
  O         2.9732984993        5.7937546317        3.6041830736
  H         3.4176710045        6.4726708296        4.1695014822
  H         2.4485201643        5.2041088060        4.2250869218
  O        -4.0511295134        1.5445925671       -5.0626498585
  H        -3.5387103609        0.7974835831       -4.6210546124
  H        -4.0333821170        2.3518494025       -4.4301366268
  O         3.4847726839        0.5997692637        4.0091486817
  H         2.7896502362        0.5375110591        3.2686671028
  H         4.3189983631        0.4153324309        3.4395276451
  O        -4.6207476869       -1.0117618538        4.0048952776
  H        -5.3477593066       -1.2443059233        4.6253237945
  H        -4.2163881176       -1.8844792105        3.8428058821
  O        -0.2165387154        1.2751467697        3.1167167744
  H         0.6371782887        1.4136801810        2.7286969429
  H        -0.3894124526        0.3225841245        3.0508790291
  O        -1.9915351632        5.0697083632        0.6000194332
  H        -2.3376502958        4.2340876605        1.0013898546
  H        -2.6520248188        5.7471163392        0.8506616742
  O        -1.3075474036       -1.8956122645       -4.9542920356
  H        -0.8701251561       -2.4028189929       -4.2563741889
  H        -0.5949693850       -1.3532124979       -5.4532434800
  O        -5.1373452268        1.8062068789       -1.2867681226
  H        -4.6981592560        2.4597481938       -1.8505668997
  H        -5.4245526684        1.1256927260       -1.8633945543
  O        -7.3836561358       -1.2119873462       -1.9506599575
  H        -6.4212881329       -1.0371432188       -2.1463799566
  H        -7.4808782211       -1.5310477918       -1.0339482458
  O        -0.4639445925        1.4048471789       -1.7228637494
  H        -0.7867348868        2.1866499220       -2.1962304023
  H         0.2743927320        0.9864157199       -2.2215845685
  O        -0.0298107043       -6.5210921839       -1.0933643185
  H         0.0021424143       -5.5311453888       -1.1226646288
  H        -0.8031132631       -6.7435142146       -0.4648562320
  O         5.7090935537       -1.6927086580        6.0185486672
  H         6.0227718591       -2.5102376528        6.4195407580
  H         5.6793497711       -0.9012395738        6.6521961143
  O        -2.5962982991       -5.7683972037       -4.2195771395
  H        -2.6049028140       -6.7077669400       -4.4728336739
  H        -3.4354537463       -5.5645841736       -3.8483514813
  O        -4.9449687319       -1.4086720170       -3.2473392351
  H        -4.8913021653       -2.2217322989       -3.7674224672
  H        -3.9689548003       -1.0964857745       -3.2341980948
  O         2.2983754229       -8.0809494482       -1.2132412662
  H         1.3003681505       -8.0636283692       -1.1143923954
  H         2.5161940132       -7.1053673603       -1.1768519202
  O         6.7754357543       -3.8965331032       -5.3359261145
  H         7.5499418595       -4.1003001805       -5.8213622687
  H         6.0430158524       -4.4328146397       -5.6479610986
  O        -0.3424844631        4.9658112476        2.9508285728
  H        -0.6418240309        4.1672557959        3.4716379980
  H        -0.6759740908        4.8699377537        2.0551376194
  O        -2.8056288807       -4.0048234272        6.2239057927
  H        -2.3850599469       -4.6322887909        6.8455564859
  H        -2.3797353004       -3.1498233269        6.4330163166
  O        -2.7925113864       -3.4732237158        3.4612331596
  H        -3.1129543056       -3.8620641144        4.2746132111
  H        -3.2856093678       -4.0271447136        2.8274407488
  O         2.4867711476        4.6803618907       -3.9511208166
  H         3.3971373036        4.5081635205       -3.6298163906
  H         1.9790712168        4.6240682409       -3.1152437525
  O         1.6590765104        0.0523137912       -3.1069189687
  H         1.5113564742       -0.5996769003       -2.3563690233
  H         2.5068721250        0.5264194699       -3.0661523880
  O        -1.2023048654       -8.1603479212       -6.3670700282
  H        -0.9055157967       -9.0690551157       -6.5705273597
  H        -2.1798096138       -8.0740016376       -6.5464905196
  O        -0.4761071273        8.3851620636        0.5987466087
  H         0.3632441731        8.3096547993        1.1058350782
  H        -1.2852386123        8.0753854402        1.0587255936
  O         5.9065449362       -6.7989771803       -6.6004398209
  H         5.4130154976       -7.6233171741       -6.9137876216
  H         6.2177506878       -6.2344541440       -7.3198720135
  O        -0.3594330297       -5.2622440761        4.6704297767
  H        -0.4156127476       -6.0988819305        4.1367481919
  H        -1.2931127588       -5.1547968831        4.9497584977
  O        -3.8273131578       -5.5279235466        1.7633664403
  H        -4.1388543582       -6.3621998573        2.1513804320
  H        -4.3955669691       -5.3216936959        1.0405948547
     192
 i =        1, time =        0.500, E =     -1103.3583909886
  O         3.8562118230       -4.7539056241        5.5098215099
  H         4.2006099276       -5.5503180185        6.0135199536
  H         3.0871095543       -4.3101354398        5.9155042087
  O        -3.5448235298        1.7464044350        4.2890572255
  H        -3.3633815483        0.8257876708        4.1531659329
  H        -3.6091876268        1.9277325193        5.2559895463
  O         4.5643370212        2.9345780481       -7.1006285497
  H         3.6666330102        3.2289394283       -6.8000873125
  H         4.4981764820        2.7926114623       -8.0392292381
  O        -2.5741261434       -0.1111949849       -3.4133667638
  H        -2.0430773149        0.4086549905       -2.8341761222
  H        -1.8914859646       -0.6193378998       -3.9343411098
  O        -3.7622499600       -7.7118702751        5.6291790493
  H        -4.6399411124       -7.4293301014        5.9771581324
  H        -3.8475994523       -7.6210287085        4.6416629438
  O        -6.7109982269       -0.0772110217        2.3159347985
  H        -6.0428369843       -0.4456888320        3.0080035313
  H        -6.2612955133        0.7408095300        1.9657708341
  O         4.0122498596       -5.5801712387       -0.4143886786
  H         3.3294863980       -5.6193325287        0.2992858978
  H         3.9035637164       -4.7467956027       -0.8307969060
  O        -2.6692851007       -3.0815308429       -1.2261957108
  H        -3.2568199151       -2.4568128986       -1.7345843778
  H        -2.1779540198       -2.5847908016       -0.5872967443
  O         5.4551588022       -3.1708798239        3.0995762647
  H         4.6798643244       -3.2470506886        3.6370193363
  H         5.2531028035       -3.0326430189        2.1282247626
  O         2.0099586825        3.8031547920       -6.6477170205
  H         1.3817505521        3.0720681593       -6.8075968111
  H         1.8299742240        4.0709192219       -5.7164838540
  O         4.0601286326       -3.8940691069       -3.0597518443
  H         3.2361904611       -3.7292352840       -3.6890933663
  H         4.3323968860       -2.9866995807       -2.9682244919
  O         1.9798333446       -1.8429518587        1.0228084640
  H         1.5798820665       -2.4750180951        1.6551082413
  H         1.6255168165       -1.9214956024        0.0727676738
  O         0.7322200442       -5.7446923158       -5.0102281588
  H         1.4642516550       -6.3325687768       -4.8273070990
  H         0.4453737743       -5.7129560954       -5.9355141933
  O        -7.5177530125       -8.6771039519       -3.2402474564
  H        -7.8647688157       -9.6024172367       -3.0838012597
  H        -7.1323404721       -8.5652564805       -2.3568568355
  O         3.0067461197       -1.6239881495        5.1708817241
  H         3.8500346532       -1.7922495727        5.6848361599
  H         3.1752780651       -0.8382269141        4.6114079537
  O        -0.0942929154        1.8628172832       -6.6893892190
  H         0.2385241143        1.0574458654       -6.3210527174
  H        -0.0429257306        1.7377887357       -7.6415347602
  O         1.3832144285       -3.0829157611        3.6610648584
  H         2.0056446010       -2.6722017111        4.3119513511
  H         1.0978099023       -3.9512145668        3.9757201947
  O        -2.3281138966        2.8043175817        2.2348228145
  H        -1.6193873790        2.1256807167        2.1694584269
  H        -2.7673343863        2.5862831970        3.0842026509
  O         0.8756184197       -0.6599450578       -5.6022011973
  H         1.7359752687       -0.8165430030       -6.1066945016
  H         1.1930166114       -0.2381883346       -4.7532544033
  O        -1.1825072035       -0.7171176000        0.2395339758
  H        -1.1253603192        0.2374556073       -0.0716012014
  H        -0.9448255916       -0.7797671638        1.1870497380
  O        -3.8861216660       -9.0109875868       -3.1280324253
  H        -4.4958499610       -8.2788369966       -3.2022825230
  H        -2.9231241460       -8.7176476453       -3.1250160164
  O         4.9786361150        4.5616730282        2.1630414315
  H         4.5763133353        4.0766772796        1.4372368496
  H         4.2069103527        4.9225775079        2.6671918915
  O         4.2086657228        1.0300311624       -3.2126639492
  H         4.6195983842        0.8676381837       -4.0698841866
  H         4.4250243642        0.1920010008       -2.7227788973
  O        -5.2097497868       -6.3454924310       -2.6830322152
  H        -5.3868209642       -6.0719640968       -1.7791627479
  H        -5.9932389063       -6.0885908328       -3.1612470091
  O         4.8276778871       -2.1486667755        0.6950975837
  H         5.1658074072       -1.3708685283        1.1705177658
  H         3.8725898106       -2.0103639952        0.7980449936
  O         2.1114361072        0.9418064627        1.6969296214
  H         2.7723855649        1.5068799928        1.2689499112
  H         2.3299822879        0.0831728060        1.2964228362
  O        -5.7576247030       -5.0941174747       -0.3623626498
  H        -6.6741877122       -5.4466852658       -0.2464108886
  H        -5.9303918165       -4.1791653231       -0.6788493429
  O        -4.8489205014        4.6339507439        2.6307770554
  H        -5.8233510674        4.7232538184        2.3580259462
  H        -4.7657211061        3.6858318760        2.2477092240
  O         5.5080857723        0.8521591940       -5.5947093850
  H         6.3886313293        1.1800968639       -5.3619950086
  H         5.0326676132        1.4603188269       -6.2741916725
  O         0.7373085812       -1.9158170077       -1.2701931087
  H         0.4367453720       -2.6844596098       -1.8378155996
  H        -0.0257686380       -1.6453192849       -0.7348030933
  O         3.9002018108        2.6206712192        0.0857365711
  H         4.6543337925        2.4153525195       -0.4853426061
  H         3.3482394543        3.2434467758       -0.4536726404
  O        -1.0971499122       -1.3704395140        2.9476862342
  H        -0.3342754168       -2.0394132691        3.1180797885
  H        -1.8526628884       -1.9964434495        3.1923254189
  O         2.0706771414       -5.6459108324        1.3621794046
  H         1.2019547817       -6.1423624369        1.2582758593
  H         2.4286452137       -5.8879723040        2.2636074708
  O        -0.6298430280       -3.8272323316       -2.8443142254
  H        -1.5565863134       -3.7776491377       -2.5739476754
  H        -0.5077625106       -4.5810874495       -3.3990999546
  O        -5.2904016089        2.0651447608        1.4385353575
  H        -4.4554206844        1.8868221506        1.9002042711
  H        -5.1292633054        1.9177679607        0.4076733135
  O         1.9616196616       -3.4233203560       -5.2673387444
  H         1.3284424697       -4.2063385268       -5.0374878011
  H         1.2946690169       -2.7698094682       -5.5103511147
  O        -1.1921257694        3.9361796991       -3.3733142268
  H        -1.1989997696        3.9700814011       -4.3509316803
  H        -0.7385569155        4.6498849537       -2.9448856307
  O        -5.4263336809       -5.0030231159        4.2766786488
  H        -6.1213060739       -4.5162890192        3.7775385405
  H        -4.7546078081       -5.3563814949        3.6975013900
  O         2.9736078492        5.7954414015        3.6030639594
  H         3.4032672420        6.4776446708        4.1721537238
  H         2.4429166589        5.1978040325        4.2099148114
  O        -4.0503302916        1.5453584381       -5.0637922790
  H        -3.5445192353        0.7913582129       -4.6130835574
  H        -4.0317485475        2.3480011997       -4.4386113901
  O         3.4832882324        0.5986731166        4.0096955990
  H         2.8018730139        0.5422837999        3.2516575409
  H         4.3152766318        0.4197230032        3.4584075751
  O        -4.6195123248       -1.0132009620        4.0034454181
  H        -5.3504148035       -1.2458545897        4.6366576232
  H        -4.2087868025       -1.8954235681        3.8312928704
  O        -0.2160390275        1.2750152554        3.1198255254
  H         0.6395559576        1.4100134546        2.7316349007
  H        -0.3945105732        0.3160446455        3.0530762209
  O        -1.9908355208        5.0654647848        0.5983169958
  H        -2.3296298768        4.2221427103        0.9982472652
  H        -2.6428153933        5.7473218232        0.8345905472
  O        -1.3057424306       -1.8959749319       -4.9529492553
  H        -0.8653653974       -2.4072673198       -4.2445556646
  H        -0.5752164001       -1.3398974692       -5.4489815031
  O        -5.1393963160        1.8078850485       -1.2888637982
  H        -4.6993019197        2.4621590262       -1.8557901129
  H        -5.4095395177        1.1288580988       -1.8690931280
  O        -7.3815289985       -1.2158440719       -1.9495804621
  H        -6.4173712503       -1.0465469032       -2.1478311594
  H        -7.4797434489       -1.5291131637       -1.0285730744
  O        -0.4635686467        1.4067856203       -1.7206199415
  H        -0.7875666689        2.1854501630       -2.1888022722
  H         0.2725211237        0.9793278626       -2.2222525225
  O        -0.0309785991       -6.5180344532       -1.0940535715
  H         0.0046499031       -5.5356134935       -1.1206311664
  H        -0.8136495084       -6.7521286849       -0.4480103336
  O         5.7094172646       -1.6933006119        6.0191866979
  H         6.0144008248       -2.5021089857        6.4256964142
  H         5.6916803123       -0.9091366833        6.6483239948
  O        -2.5982942949       -5.7712950525       -4.2175423192
  H        -2.6060012505       -6.7041242174       -4.4883491192
  H        -3.4458426153       -5.5496380133       -3.8574505216
  O        -4.9448579586       -1.4072635527       -3.2458001293
  H        -4.9051125980       -2.2327765918       -3.7692883918
  H        -3.9736552146       -1.0918802703       -3.2345013081
  O         2.2969856657       -8.0809261654       -1.2154830476
  H         1.2905908308       -8.0739545877       -1.1170490595
  H         2.5203858511       -7.1038167435       -1.1768034873
  O         6.7759264129       -3.8964848757       -5.3362431114
  H         7.5594849824       -4.1134434137       -5.8204893955
  H         6.0403493021       -4.4293032273       -5.6545006664
  O        -0.3429761579        4.9670027860        2.9518162146
  H        -0.6454144775        4.1791481059        3.4732800371
  H        -0.6817108501        4.8649285078        2.0579655290
  O        -2.8072840429       -4.0036498400        6.2243483957
  H        -2.3932681508       -4.6200214162        6.8558643969
  H        -2.3886475407       -3.1569143756        6.4244281410
  O        -2.7934188077       -3.4756343721        3.4636709577
  H        -3.1069392109       -3.8630972802        4.2624548324
  H        -3.2735514734       -4.0288706404        2.8330669890
  O         2.4873558897        4.6809625377       -3.9536404443
  H         3.3930197072        4.5152187324       -3.6254031781
  H         1.9756157774        4.6124839589       -3.1064951336
  O         1.6587222146        0.0530215261       -3.1060410101
  H         1.5291016804       -0.5979886161       -2.3563205194
  H         2.4891339430        0.5295744771       -3.0641628832
  O        -1.2045063224       -8.1633400078       -6.3649069404
  H        -0.9029236689       -9.0619018026       -6.5700371657
  H        -2.1735073078       -8.0659591192       -6.5430807947
  O        -0.4744220210        8.3821590210        0.5995916926
  H         0.3618187105        8.3066828617        1.1158067148
  H        -1.2736481327        8.0677450753        1.0705276873
  O         5.9035552580       -6.7961151328       -6.6032328112
  H         5.4154009152       -7.6148530915       -6.9204705254
  H         6.1987383299       -6.2195975866       -7.3226794299
  O        -0.3586785710       -5.2609407409        4.6703960164
  H        -0.4084739959       -6.1023313787        4.1219743516
  H        -1.2916798186       -5.1541490377        4.9533585702
  O        -3.8260625918       -5.5286832411        1.7693474989
  H        -4.1215833991       -6.3661641917        2.1460901539
  H        -4.3897300487       -5.3163756839        1.0383527955
     192
 i =        2, time =        1.000, E =     -1103.3614401544
  O         3.8539998068       -4.7546454475        5.5103438748
  H         4.1890808695       -5.5415079895        6.0273398001
  H         3.0788212329       -4.3030177822        5.9194665902
  O        -3.5436410712        1.7474419738        4.2901376283
  H        -3.3695972565        0.8108019025        4.1540406288
  H        -3.6096194353        1.9108905837        5.2420605967
  O         4.5596182305        2.9349036197       -7.1010891338
  H         3.6538982813        3.2285239281       -6.7956872963
  H         4.5004537611        2.7999132889       -8.0354731375
  O        -2.5751440151       -0.1162253452       -3.4121692870
  H        -2.0451128986        0.4048495888       -2.8354781994
  H        -1.8947761215       -0.6249681223       -3.9414172447
  O        -3.7619947197       -7.7130910657        5.6302282111
  H        -4.6459865208       -7.4387539282        5.9664751073
  H        -3.8438790976       -7.6077728463        4.6243232205
  O        -6.7087907861       -0.0785830666        2.3143530013
  H        -6.0455092108       -0.4346034059        3.0051032237
  H        -6.2641484302        0.7474209833        1.9733180983
  O         4.0136296319       -5.5788591600       -0.4160151966
  H         3.3260388203       -5.6218623948        0.2917587402
  H         3.9009269030       -4.7358934515       -0.8277248696
  O        -2.6695340861       -3.0820930001       -1.2267641030
  H        -3.2635658483       -2.4653874690       -1.7283299451
  H        -2.1622411947       -2.5678070580       -0.5959724694
  O         5.4529575985       -3.1729679004        3.0987531865
  H         4.6706401664       -3.2480470568        3.6527097356
  H         5.2471934753       -3.0147990876        2.1270939415
  O         2.0120655743        3.8037964689       -6.6513062560
  H         1.3816730326        3.0730841581       -6.8110594095
  H         1.8240772025        4.0751535042       -5.7228110881
  O         4.0589701076       -3.8953098777       -3.0600929293
  H         3.2434808083       -3.7393231192       -3.6796577322
  H         4.3300643154       -2.9874921162       -2.9505948723
  O         1.9824421331       -1.8415585239        1.0229570607
  H         1.5949063138       -2.4786138834        1.6605068699
  H         1.6311611491       -1.9310295738        0.0818971600
  O         0.7304165580       -5.7458611316       -5.0102349602
  H         1.4513205677       -6.3375799832       -4.8358293239
  H         0.4414493769       -5.7177741384       -5.9259124442
  O        -7.5189154055       -8.6762442141       -3.2432282684
  H        -7.8556696982       -9.6021097713       -3.0879523300
  H        -7.1314134631       -8.5498369502       -2.3666510131
  O         3.0044171803       -1.6274719280        5.1715028672
  H         3.8451434961       -1.7818307583        5.6817805116
  H         3.1819337527       -0.8553797236        4.6118323299
  O        -0.0942402633        1.8624463456       -6.6925873382
  H         0.2394549746        1.0555064479       -6.3229776026
  H        -0.0331271693        1.7370782510       -7.6339257535
  O         1.3861040278       -3.0841977070        3.6621104664
  H         2.0065023682       -2.6649103851        4.3074578302
  H         1.0973462369       -3.9366924749        3.9710215280
  O        -2.3282684280        2.8026183921        2.2347301380
  H        -1.6155600111        2.1202012160        2.1528605705
  H        -2.7743276606        2.5900798852        3.0812965570
  O         0.8768839365       -0.6586526885       -5.6040925542
  H         1.7503860186       -0.8148369839       -6.1039064080
  H         1.1892994074       -0.2369564322       -4.7507583530
  O        -1.1783460098       -0.7177163173        0.2351393126
  H        -1.1164148233        0.2396718936       -0.0697534878
  H        -0.9566363568       -0.7741913674        1.1738241024
  O        -3.8859247426       -9.0092547860       -3.1242235013
  H        -4.4943887702       -8.2738867561       -3.1884389162
  H        -2.9290628577       -8.7045864279       -3.1272165763
  O         4.9787849564        4.5659750947        2.1655497887
  H         4.5779836239        4.0825906128        1.4350197969
  H         4.2036857498        4.9377406187        2.6611186949
  O         4.2097533993        1.0305892696       -3.2116397901
  H         4.6156562563        0.8830894705       -4.0789385010
  H         4.4281611830        0.1920600108       -2.7080810995
  O        -5.2087005522       -6.3448018438       -2.6855746139
  H        -5.3935871027       -6.0560986343       -1.7815638151
  H        -5.9900771687       -6.0869497857       -3.1719201525
  O         4.8281887509       -2.1481001540        0.6942895612
  H         5.1637275536       -1.3550026054        1.1745840168