64   
1    

1    
  0.0100000000000000   0.0000000000000000   0.0000000000000000
  -0.0030726894    0.0000000098    0.0000000098
   0.0000030306    0.0000000098    0.0000000098
   0.0000094506    0.0000000098    0.0000000098
   0.0000000306    0.0000000098    0.0000000098
   0.0000094506    0.0000000098    0.0000000098
   0.0000000306    0.0000000098    0.0000000098
  -0.0000814794    0.0000000098    0.0000000098
   0.0000046006    0.0000000098    0.0000000098
  -0.0000899994    0.0000218998    0.0000218998
  -0.0000011494    0.0000018998    0.0000018998
  -0.0000898194    0.0000215898   -0.0000216102
  -0.0000010894    0.0000019098   -0.0000019302
  -0.0000898194   -0.0000216102    0.0000215898
  -0.0000010894   -0.0000019302    0.0000019098
  -0.0000899994   -0.0000219202   -0.0000219202
  -0.0000011494   -0.0000019202   -0.0000019202
   0.0000426806   -0.0000216002    0.0000425398
   0.0000430006   -0.0000218602   -0.0000428202
   0.0000073506   -0.0000019002   -0.0000125302
   0.0000073606   -0.0000019102    0.0000124698
   0.0000426806    0.0000216298   -0.0000425702
   0.0000430006    0.0000218898    0.0000427998
   0.0000073506    0.0000019398    0.0000125098
   0.0000073606    0.0000019398   -0.0000125002
   0.0000426806    0.0000425398   -0.0000216002
   0.0000430006   -0.0000428202   -0.0000218602
   0.0000426806   -0.0000425702    0.0000216298
   0.0000430006    0.0000427998    0.0000218898
   0.0000073506   -0.0000125302   -0.0000019002
   0.0000073606    0.0000124698   -0.0000019102
   0.0000073506    0.0000125098    0.0000019398
   0.0000073606   -0.0000125002    0.0000019398
  -0.0000034194    0.0000049898    0.0000049898
   0.0000425106    0.0000056898    0.0000056898
   0.0000054206    0.0000056098    0.0000055998
  -0.0000103694    0.0000076198    0.0000065398
   0.0000054206    0.0000055998    0.0000056098
  -0.0000103694    0.0000065398    0.0000076198
   0.0000000006    0.0000065098    0.0000065098
   0.0007462106    0.0005878298    0.0005878298
  -0.0000000094   -0.0000065102   -0.0000065102
   0.0007462006   -0.0005878202   -0.0005878202
   0.0000054006   -0.0000056002   -0.0000056102
  -0.0000103794   -0.0000065402   -0.0000076202
   0.0000054006   -0.0000056102   -0.0000056002
  -0.0000103794   -0.0000076202   -0.0000065402
  -0.0000034294   -0.0000049802   -0.0000049802
   0.0000425006   -0.0000056802   -0.0000056802
  -0.0000102394   -0.0000064702    0.0000077198
   0.0000055406   -0.0000057102    0.0000057398
   0.0007400306   -0.0005736702    0.0005736598
   0.0000000806   -0.0000064802    0.0000064798
   0.0000423806   -0.0000056702    0.0000056698
  -0.0000033894   -0.0000049902    0.0000049798
  -0.0000102394   -0.0000077202    0.0000064598
   0.0000055406   -0.0000057502    0.0000056998
  -0.0000102394    0.0000077198   -0.0000064702
   0.0000055406    0.0000057398   -0.0000057102
   0.0000423806    0.0000056698   -0.0000056702
  -0.0000033894    0.0000049798   -0.0000049902
   0.0007400306    0.0005736598   -0.0005736702
   0.0000000806    0.0000064798   -0.0000064802
  -0.0000102394    0.0000064598   -0.0000077202
   0.0000055406    0.0000056998   -0.0000057502
