64   
1    

1    
  0.0100000000000000   0.0000000000000000   0.0000000000000000
  -0.0019441494    0.0000000198    0.0000000198
   0.0000020606    0.0000000198    0.0000000198
   0.0000089106    0.0000000198    0.0000000198
  -0.0000029994    0.0000000198    0.0000000198
   0.0000089106    0.0000000198    0.0000000198
  -0.0000029994    0.0000000198    0.0000000198
  -0.0000760194    0.0000000198    0.0000000198
   0.0000033306    0.0000000198    0.0000000198
  -0.0000809694    0.0000157898    0.0000157898
   0.0000001306    0.0000010898    0.0000010898
  -0.0000806594    0.0000156498   -0.0000156702
   0.0000001906    0.0000011098   -0.0000011302
  -0.0000806594   -0.0000156702    0.0000156498
   0.0000001906   -0.0000011302    0.0000011098
  -0.0000809694   -0.0000158102   -0.0000158102
   0.0000001306   -0.0000011102   -0.0000011102
   0.0000272706   -0.0000156002    0.0000266398
   0.0000275506   -0.0000158102   -0.0000268902
   0.0000052106   -0.0000011102   -0.0000125202
   0.0000052206   -0.0000011002    0.0000124598
   0.0000272706    0.0000156198   -0.0000266602
   0.0000275506    0.0000158298    0.0000268698
   0.0000052106    0.0000011198    0.0000124998
   0.0000052206    0.0000011198   -0.0000124702
   0.0000272706    0.0000266398   -0.0000156002
   0.0000275506   -0.0000268902   -0.0000158102
   0.0000272706   -0.0000266602    0.0000156198
   0.0000275506    0.0000268698    0.0000158298
   0.0000052106   -0.0000125202   -0.0000011102
   0.0000052206    0.0000124598   -0.0000011002
   0.0000052106    0.0000124998    0.0000011198
   0.0000052206   -0.0000124702    0.0000011198
  -0.0000030394    0.0000048498    0.0000048498
   0.0000423506    0.0000023398    0.0000023398
   0.0000028406    0.0000022798    0.0000013298
  -0.0000079194    0.0000089298    0.0000051498
   0.0000028406    0.0000013298    0.0000022798
  -0.0000079194    0.0000051498    0.0000089298
  -0.0000014894    0.0000051198    0.0000051198
   0.0004909206    0.0002507098    0.0002507098
  -0.0000014794   -0.0000051302   -0.0000051302
   0.0004909306   -0.0002507202   -0.0002507202
   0.0000028506   -0.0000013402   -0.0000022902
  -0.0000079094   -0.0000051602   -0.0000089402
   0.0000028506   -0.0000022902   -0.0000013402
  -0.0000079094   -0.0000089402   -0.0000051602
  -0.0000030294   -0.0000048602   -0.0000048602
   0.0000423606   -0.0000023502   -0.0000023502
  -0.0000078294   -0.0000051202    0.0000090398
   0.0000029606   -0.0000014302    0.0000024298
   0.0004856706   -0.0002430702    0.0002430798
  -0.0000014594   -0.0000051302    0.0000051298
   0.0000422006   -0.0000023602    0.0000023598
  -0.0000030194   -0.0000048602    0.0000048598
  -0.0000078294   -0.0000090402    0.0000051198
   0.0000029606   -0.0000024302    0.0000014298
  -0.0000078294    0.0000090398   -0.0000051202
   0.0000029606    0.0000024298   -0.0000014302
   0.0000422006    0.0000023598   -0.0000023602
  -0.0000030194    0.0000048598   -0.0000048602
   0.0004856706    0.0002430798   -0.0002430702
  -0.0000014594    0.0000051298   -0.0000051302
  -0.0000078294    0.0000051198   -0.0000090402
   0.0000029606    0.0000014298   -0.0000024302
