64   
1    

1    
  0.0100000000000000   0.0000000000000000   0.0000000000000000
  -0.0028821373    0.0000000000    0.0000000000
   0.0000027027    0.0000000000    0.0000000000
   0.0000093127    0.0000000000    0.0000000000
  -0.0000005973    0.0000000000    0.0000000000
   0.0000093127    0.0000000000    0.0000000000
  -0.0000005973    0.0000000000    0.0000000000
  -0.0000811473    0.0000000000    0.0000000000
   0.0000042427    0.0000000000    0.0000000000
  -0.0000885973    0.0000212800    0.0000212800
  -0.0000009673    0.0000017700    0.0000017700
  -0.0000883973    0.0000209800   -0.0000209800
  -0.0000009073    0.0000017800   -0.0000017800
  -0.0000883973   -0.0000209800    0.0000209800
  -0.0000009073   -0.0000017800    0.0000017800
  -0.0000885973   -0.0000212800   -0.0000212800
  -0.0000009673   -0.0000017700   -0.0000017700
   0.0000407027   -0.0000207000    0.0000404100
   0.0000410227   -0.0000209500   -0.0000406700
   0.0000070127   -0.0000017800   -0.0000124900
   0.0000070227   -0.0000017800    0.0000124600
   0.0000407027    0.0000207000   -0.0000404100
   0.0000410227    0.0000209500    0.0000406700
   0.0000070127    0.0000017800    0.0000124900
   0.0000070227    0.0000017800   -0.0000124600
   0.0000407027    0.0000404100   -0.0000207000
   0.0000410227   -0.0000406700   -0.0000209500
   0.0000407027   -0.0000404100    0.0000207000
   0.0000410227    0.0000406700    0.0000209500
   0.0000070127   -0.0000124900   -0.0000017800
   0.0000070227    0.0000124600   -0.0000017800
   0.0000070127    0.0000124900    0.0000017800
   0.0000070227   -0.0000124600    0.0000017800
  -0.0000033573    0.0000049400    0.0000049400
   0.0000427327    0.0000051200    0.0000051200
   0.0000050027    0.0000051000    0.0000048800
  -0.0000100673    0.0000078000    0.0000063300
   0.0000050027    0.0000048800    0.0000051000
  -0.0000100673    0.0000063300    0.0000078000
  -0.0000003073    0.0000062900    0.0000062900
   0.0007023427    0.0005264300    0.0005264300
  -0.0000003073   -0.0000062900   -0.0000062900
   0.0007023427   -0.0005264300   -0.0005264300
   0.0000050027   -0.0000048800   -0.0000051000
  -0.0000100673   -0.0000063300   -0.0000078000
   0.0000050027   -0.0000051000   -0.0000048800
  -0.0000100673   -0.0000078000   -0.0000063300
  -0.0000033573   -0.0000049400   -0.0000049400
   0.0000427327   -0.0000051200   -0.0000051200
  -0.0000099673   -0.0000062400    0.0000078700
   0.0000051127   -0.0000049600    0.0000052100
   0.0006962527   -0.0005133900    0.0005133900
  -0.0000002573   -0.0000062500    0.0000062500
   0.0000425827   -0.0000050900    0.0000050900
  -0.0000033473   -0.0000049100    0.0000049100
  -0.0000099673   -0.0000078700    0.0000062400
   0.0000051127   -0.0000052100    0.0000049600
  -0.0000099673    0.0000078700   -0.0000062400
   0.0000051127    0.0000052100   -0.0000049600
   0.0000425827    0.0000050900   -0.0000050900
  -0.0000033473    0.0000049100   -0.0000049100
   0.0006962527    0.0005133900   -0.0005133900
  -0.0000002573    0.0000062500   -0.0000062500
  -0.0000099673    0.0000062400   -0.0000078700
   0.0000051127    0.0000049600   -0.0000052100
