# Projected DOS for atomic kind Te4 at iteration step i = 0, E(Fermi) =     0.092883 a.u.
#     MO Eigenvalue [a.u.]      Occupation                 s                py                pz                px               d-2               d-1                d0               d+1               d+2
       1         -0.731804        1.000000        0.00015715        0.00000000        0.00000262        0.00017136        0.00000000        0.00000000        0.00003662        0.00056592        0.00006212
       2         -0.731732        1.000000        0.00013039        0.00000000        0.00009511        0.00014093        0.00000000        0.00000000        0.00028929        0.00049232        0.00007736
       3         -0.731732        1.000000        0.00013039        0.00000000        0.00009511        0.00014093        0.00000000        0.00000000        0.00028929        0.00049232        0.00007736
       4         -0.731709        1.000000        0.00011108        0.00017132        0.00000422        0.00013373        0.00041782        0.00040559        0.00000081        0.00067425        0.00001000
       5         -0.731709        1.000000        0.00011108        0.00017132        0.00000422        0.00013373        0.00041782        0.00040559        0.00000081        0.00067425        0.00001000
       6         -0.731680        1.000000        0.00014198        0.00000000        0.00001164        0.00029940        0.00000000        0.00000000        0.00001263        0.00046697        0.00008889
       7         -0.731677        1.000000        0.00014136        0.00000000        0.00001248        0.00029533        0.00000000        0.00000000        0.00001542        0.00044909        0.00009164
       8         -0.731651        1.000000        0.00009540        0.00013963        0.00006498        0.00011175        0.00048917        0.00050169        0.00018706        0.00061567        0.00003872
       9         -0.731651        1.000000        0.00009540        0.00013963        0.00006498        0.00011175        0.00048917        0.00050169        0.00018706        0.00061567        0.00003872
      10         -0.731651        1.000000        0.00009540        0.00013963        0.00006498        0.00011175        0.00048917        0.00050169        0.00018706        0.00061567        0.00003872
