# Projected DOS for atomic kind Te3 at iteration step i = 0, E(Fermi) =     0.092883 a.u.
#     MO Eigenvalue [a.u.]      Occupation                 s                py                pz                px               d-2               d-1                d0               d+1               d+2
       1         -0.731804        1.000000        0.00015677        0.00000000        0.00000257        0.00017029        0.00000000        0.00000000        0.00003646        0.00056679        0.00006256
       2         -0.731732        1.000000        0.00012986        0.00000000        0.00009523        0.00013947        0.00000000        0.00000000        0.00028928        0.00049093        0.00007780
       3         -0.731732        1.000000        0.00012986        0.00000000        0.00009523        0.00013947        0.00000000        0.00000000        0.00028928        0.00049093        0.00007780
       4         -0.731709        1.000000        0.00011062        0.00017079        0.00000409        0.00013281        0.00041015        0.00040573        0.00000066        0.00067417        0.00001018
       5         -0.731709        1.000000        0.00011062        0.00017079        0.00000409        0.00013281        0.00041015        0.00040573        0.00000066        0.00067417        0.00001018
       6         -0.731680        1.000000        0.00014086        0.00000000        0.00001160        0.00029210        0.00000000        0.00000000        0.00001277        0.00046821        0.00009079
       7         -0.731677        1.000000        0.00014127        0.00000000        0.00001235        0.00029653        0.00000000        0.00000000        0.00001473        0.00045049        0.00009093
       8         -0.731651        1.000000        0.00009478        0.00013873        0.00006490        0.00011040        0.00047883        0.00050391        0.00018749        0.00061290        0.00003903
       9         -0.731651        1.000000        0.00009478        0.00013873        0.00006490        0.00011040        0.00047883        0.00050391        0.00018749        0.00061290        0.00003903
      10         -0.731651        1.000000        0.00009478        0.00013873        0.00006490        0.00011040        0.00047883        0.00050391        0.00018749        0.00061290        0.00003903
