# Projected DOS for atomic kind Cs3 at iteration step i = 0, E(Fermi) =     0.092883 a.u.
#     MO Eigenvalue [a.u.]      Occupation                 s                py                pz                px               d-2               d-1                d0               d+1               d+2
       1         -0.731804        1.000000        0.02086330        0.00000000        0.00018984        0.00076620        0.00000000        0.00000000        0.00008905        0.00027145        0.00003443
       2         -0.731732        1.000000        0.01541440        0.00000000        0.00469318        0.00097660        0.00000000        0.00000000        0.00044144        0.00031122        0.00038297
       3         -0.731732        1.000000        0.01541440        0.00000000        0.00469318        0.00097660        0.00000000        0.00000000        0.00044144        0.00031122        0.00038297
       4         -0.731709        1.000000        0.01381745        0.00459087        0.00000794        0.00060153        0.00015914        0.00170927        0.00030918        0.00024535        0.00021646
       5         -0.731709        1.000000        0.01381745        0.00459087        0.00000794        0.00060153        0.00015914        0.00170927        0.00030918        0.00024535        0.00021646
       6         -0.731680        1.000000        0.01319241        0.00000000        0.00021962        0.00573245        0.00000000        0.00000000        0.00102851        0.00032606        0.00016919
       7         -0.731677        1.000000        0.01318828        0.00000000        0.00021359        0.00579166        0.00000000        0.00000000        0.00104235        0.00034938        0.00015639
       8         -0.731651        1.000000        0.01011746        0.00386498        0.00334419        0.00075912        0.00022034        0.00213468        0.00042503        0.00025205        0.00049710
       9         -0.731651        1.000000        0.01011746        0.00386498        0.00334419        0.00075912        0.00022034        0.00213468        0.00042503        0.00025205        0.00049710
      10         -0.731651        1.000000        0.01011746        0.00386498        0.00334419        0.00075912        0.00022034        0.00213468        0.00042503        0.00025205        0.00049710
