# Projected DOS for atomic kind Cs7 at iteration step i = 0, E(Fermi) =     0.092883 a.u.
#     MO Eigenvalue [a.u.]      Occupation                 s                py                pz                px               d-2               d-1                d0               d+1               d+2
       1         -0.731804        1.000000        0.02086134        0.00000000        0.00018815        0.00078432        0.00000000        0.00000000        0.00008445        0.00026979        0.00003603
       2         -0.731732        1.000000        0.01545260        0.00000000        0.00464469        0.00100114        0.00000000        0.00000000        0.00043941        0.00030512        0.00038241
       3         -0.731732        1.000000        0.01545260        0.00000000        0.00464469        0.00100114        0.00000000        0.00000000        0.00043941        0.00030512        0.00038241
       4         -0.731709        1.000000        0.01381844        0.00459217        0.00000752        0.00061767        0.00016538        0.00170395        0.00030025        0.00024445        0.00022090
       5         -0.731709        1.000000        0.01381844        0.00459217        0.00000752        0.00061767        0.00016538        0.00170395        0.00030025        0.00024445        0.00022090
       6         -0.731680        1.000000        0.01320277        0.00000000        0.00021571        0.00585190        0.00000000        0.00000000        0.00098984        0.00031806        0.00016102
       7         -0.731677        1.000000        0.01316059        0.00000000        0.00021142        0.00578789        0.00000000        0.00000000        0.00105066        0.00035244        0.00015693
       8         -0.731651        1.000000        0.01015307        0.00387162        0.00330153        0.00078100        0.00022902        0.00212060        0.00041737        0.00024758        0.00049966
       9         -0.731651        1.000000        0.01015307        0.00387162        0.00330153        0.00078100        0.00022902        0.00212060        0.00041737        0.00024758        0.00049966
      10         -0.731651        1.000000        0.01015307        0.00387162        0.00330153        0.00078100        0.00022902        0.00212060        0.00041737        0.00024758        0.00049966
