# Projected DOS for atomic kind Cs1 at iteration step i = 0, E(Fermi) =     0.092883 a.u.
#     MO Eigenvalue [a.u.]      Occupation                 s                py                pz                px               d-2               d-1                d0               d+1               d+2
       1         -0.731804        1.000000        0.22578961        0.00000000        0.00016134        0.00000806        0.00000000        0.00000000        0.00003711        0.00003393        0.00002344
       2         -0.731732        1.000000        0.22255483        0.00000000        0.00184739        0.00001215        0.00000000        0.00000000        0.00063879        0.00004339        0.00046533
       3         -0.731732        1.000000        0.22255482        0.00000000        0.00184739        0.00001215        0.00000000        0.00000000        0.00063879        0.00004339        0.00046533
       4         -0.731709        1.000000        0.22206919        0.00209458        0.00006358        0.00000882        0.00000180        0.00045182        0.00000439        0.00003937        0.00080655
       5         -0.731709        1.000000        0.22206919        0.00209458        0.00006358        0.00000882        0.00000180        0.00045182        0.00000439        0.00003937        0.00080655
       6         -0.731680        1.000000        0.22092644        0.00000000        0.00037427        0.00268320        0.00000000        0.00000000        0.00002825        0.00073817        0.00042778
       7         -0.731677        1.000000        0.22440181        0.00000000        0.00038869        0.00263757        0.00000000        0.00000000        0.00002890        0.00074062        0.00044954
       8         -0.731651        1.000000        0.21995958        0.00157115        0.00113269        0.00001276        0.00000128        0.00082760        0.00028057        0.00003209        0.00114604
       9         -0.731651        1.000000        0.21995958        0.00157115        0.00113269        0.00001276        0.00000128        0.00082760        0.00028057        0.00003209        0.00114604
      10         -0.731651        1.000000        0.21995958        0.00157115        0.00113269        0.00001276        0.00000128        0.00082760        0.00028057        0.00003209        0.00114604
