# Projected DOS for atomic kind Cs2 at iteration step i = 0, E(Fermi) =     0.092883 a.u.
#     MO Eigenvalue [a.u.]      Occupation                 s                py                pz                px               d-2               d-1                d0               d+1               d+2
       1         -0.731804        1.000000        0.22725311        0.00000000        0.00016493        0.00000755        0.00000000        0.00000000        0.00003598        0.00003401        0.00002138
       2         -0.731732        1.000000        0.22454969        0.00000000        0.00184894        0.00001143        0.00000000        0.00000000        0.00063182        0.00004308        0.00046006
       3         -0.731732        1.000000        0.22454969        0.00000000        0.00184894        0.00001143        0.00000000        0.00000000        0.00063182        0.00004308        0.00046006
       4         -0.731709        1.000000        0.22381037        0.00210433        0.00006591        0.00000821        0.00000180        0.00045606        0.00000507        0.00003943        0.00079284
       5         -0.731709        1.000000        0.22381037        0.00210433        0.00006591        0.00000821        0.00000180        0.00045606        0.00000507        0.00003943        0.00079284
       6         -0.731680        1.000000        0.22714302        0.00000000        0.00039442        0.00262313        0.00000000        0.00000000        0.00003173        0.00071789        0.00046638
       7         -0.731677        1.000000        0.22363287        0.00000000        0.00038539        0.00264331        0.00000000        0.00000000        0.00002882        0.00074422        0.00044509
       8         -0.731651        1.000000        0.22232708        0.00158516        0.00113205        0.00001196        0.00000126        0.00083383        0.00027623        0.00003182        0.00112544
       9         -0.731651        1.000000        0.22232709        0.00158516        0.00113205        0.00001196        0.00000126        0.00083383        0.00027623        0.00003182        0.00112544
      10         -0.731651        1.000000        0.22232709        0.00158516        0.00113205        0.00001196        0.00000126        0.00083383        0.00027623        0.00003182        0.00112544
