       4
 i =        1, E =       -65.9845403070
 Cs         2.1393460258        2.3376905570        2.3375232842
 Cs         7.1099499013        7.0130716687        7.0125157545
 Cs         4.3772534623        4.6753811252        4.6750388736
 Sb         0.0000489494       -0.0000000084       -0.0000000122
       4
 i =        2, E =       -65.9862724446
 Cs         2.2200870865        2.3376541155        2.3291687005
 Cs         6.9582186755        7.0131716756        6.9863618449
 Cs         4.4689548626        4.6754252339        4.6582938898
 Sb         0.0018187358       -0.0000095736       -0.0000295457
       4
 i =        3, E =       -65.9862965095
 Cs         2.2297904773        2.3376008754        2.3281934917
 Cs         6.9407524658        7.0132963202        6.9835596320
 Cs         4.4800648833        4.6754680719        4.6564206678
 Sb         0.0013309632       -0.0000224630       -0.0000643154
       4
 i =        4, E =       -65.9863005385
 Cs         2.2323853438        2.3375352662        2.3279925146
 Cs         6.9368451211        7.0134465921        6.9830608050
 Cs         4.4831870665        4.6755179113        4.6560882317
 Sb         0.0004734912       -0.0000381850       -0.0001056111
       4
 i =        5, E =       -65.9863099090
 Cs         2.2370604438        2.3373062732        2.3277637234
 Cs         6.9314669948        7.0139742372        6.9827071138
 Cs         4.4891588973        4.6756928145        4.6558609831
 Sb        -0.0026705663       -0.0000936806       -0.0002495610
       4
 i =        6, E =       -65.9863323928
 Cs         2.2458923002        2.3366472996        2.3276142192
 Cs         6.9247907969        7.0155048825        6.9831826986
 Cs         4.5011909239        4.6762033849        4.6562130497
 Sb        -0.0119600263       -0.0002552472       -0.0006652495
       4
 i =        7, E =       -65.9863705298
 Cs         2.2588201005        2.3352875630        2.3279081995
 Cs         6.9211777309        7.0187015866        6.9859282096
 Cs         4.5203004018        4.6772818306        4.6581408693
 Sb        -0.0316127855       -0.0005966101       -0.0015368698
