 DBCSR| CPU Multiplication driver                                           XSMM
 DBCSR| Multrec recursion limit                                              512
 DBCSR| Multiplication stack size                                           1000
 DBCSR| Maximum elements for images                                    UNLIMITED
 DBCSR| Multiplicative factor virtual images                                   1
 DBCSR| Use multiplication densification                                       T
 DBCSR| Multiplication size stacks                                             3
 DBCSR| Use memory pool for CPU allocation                                     F
 DBCSR| Number of 3D layers                                               SINGLE
 DBCSR| Use MPI memory allocation                                              F
 DBCSR| Use RMA algorithm                                                      F
 DBCSR| Use Communication thread                                               T
 DBCSR| Communication thread load                                             83
 DBCSR| MPI: My node id                                                        0
 DBCSR| MPI: Number of nodes                                                  24
 DBCSR| OMP: Current number of threads                                         2
 DBCSR| OMP: Max number of threads                                             2
 DBCSR| Split modifier for TAS multiplication algorithm                  1.0E+00


  **** **** ******  **  PROGRAM STARTED AT               2022-12-15 10:33:33.803
 ***** ** ***  *** **   PROGRAM STARTED ON                               cfdh016
 **    ****   ******    PROGRAM STARTED BY                              pubo1141
 ***** **    ** ** **   PROGRAM PROCESS ID                                  4379
  **** **  *******  **  PROGRAM STARTED IN /nfs/data/pubo1141/aiida-test_profile
                                           /89/05/873c-b7a6-4b5a-8422-b34460f78a
                                           30

 CP2K| version string:                                          CP2K version 9.1
 CP2K| source code revision number:                                  git:d8d7100
 CP2K| cp2kflags: omp fftw3 libxc parallel mpi3 scalapack xsmm spglib sirius    
 CP2K| is freely available from                            https://www.cp2k.org/
 CP2K| Program compiled at                          Mon Mar 14 01:18:07 UTC 2022
 CP2K| Program compiled on                                          bf5d59bd0cb8
 CP2K| Program compiled for                                   Linux-x86-64-conda
 CP2K| Data directory path    /cm/shared/uniol/software/generic/CP2K/9.1-conda/d
 CP2K| Input file name                                                  aiida.in

 GLOBAL| Force Environment number                                              1
 GLOBAL| Basis set file name                                    BASIS_MOLOPT_UCL
 GLOBAL| Potential file name                                       POTENTIAL_UZH
 GLOBAL| MM Potential file name                                     MM_POTENTIAL
 GLOBAL| Coordinate file name                                   aiida.coords.xyz
 GLOBAL| Method name                                                        CP2K
 GLOBAL| Project name                                                      aiida
 GLOBAL| Run type                                                       CELL_OPT
 GLOBAL| FFT library                                                       FFTW3
 GLOBAL| Diagonalization library                                       ScaLAPACK
 GLOBAL| Orthonormality check for eigenvectors                          DISABLED
 GLOBAL| Matrix multiplication library                                 ScaLAPACK
 GLOBAL| All-to-all communication in single precision                          F
 GLOBAL| FFTs using library dependent lengths                                  T
 GLOBAL| Grid backend                                                       AUTO
 GLOBAL| Global print level                                               MEDIUM
 GLOBAL| MPI I/O enabled                                                       T
 GLOBAL| Total number of message passing processes                            24
 GLOBAL| Number of threads for this process                                    2
 GLOBAL| This output is from process                                           0
 GLOBAL| Stack size for threads created by OpenMP (OMP_STACKSIZE)        default
 GLOBAL| CPU model name                Intel(R) Xeon(R) CPU E5-2650 v4 @ 2.20GHz
 GLOBAL| CPUID                                                              1002
 GLOBAL| Compiled for CPUID                                                    0

 *** HINT in environment.F:869 :: The compiler target flags (generic) used ***
 *** to build this binary cannot exploit all extensions of this CPU model  ***
 *** (x86_avx2). Consider compiler target flags as part of FCFLAGS and     ***
 *** CFLAGS (ARCH file).                                                   ***


 MEMORY| system memory details [Kb]
 MEMORY|                        rank 0           min           max       average
 MEMORY| MemTotal            131594208     131594208     131594208     131594208
 MEMORY| MemFree              21078928      20703616      21078928      20891272
 MEMORY| Buffers                     0             0             0             0
 MEMORY| Cached               95028692      93555508      95028692      94292100
 MEMORY| Slab                  6842212       6842212       8567968       7705090
 MEMORY| SReclaimable          4667272       4667272       5769012       5218142
 MEMORY| MemLikelyFree       120774892     120028136     120774892     120401514


 *** Fundamental physical constants (SI units) ***

 *** Literature: B. J. Mohr and B. N. Taylor,
 ***             CODATA recommended values of the fundamental physical
 ***             constants: 2006, Web Version 5.1
 ***             http://physics.nist.gov/constants

 Speed of light in vacuum [m/s]                             2.99792458000000E+08
 Magnetic constant or permeability of vacuum [N/A**2]       1.25663706143592E-06
 Electric constant or permittivity of vacuum [F/m]          8.85418781762039E-12
 Planck constant (h) [J*s]                                  6.62606896000000E-34
 Planck constant (h-bar) [J*s]                              1.05457162825177E-34
 Elementary charge [C]                                      1.60217648700000E-19
 Electron mass [kg]                                         9.10938215000000E-31
 Electron g factor [ ]                                     -2.00231930436220E+00
 Proton mass [kg]                                           1.67262163700000E-27
 Fine-structure constant                                    7.29735253760000E-03
 Rydberg constant [1/m]                                     1.09737315685270E+07
 Avogadro constant [1/mol]                                  6.02214179000000E+23
 Boltzmann constant [J/K]                                   1.38065040000000E-23
 Atomic mass unit [kg]                                      1.66053878200000E-27
 Bohr radius [m]                                            5.29177208590000E-11

 *** Conversion factors ***

 [u] -> [a.u.]                                              1.82288848426455E+03
 [Angstrom] -> [Bohr] = [a.u.]                              1.88972613288564E+00
 [a.u.] = [Bohr] -> [Angstrom]                              5.29177208590000E-01
 [a.u.] -> [s]                                              2.41888432650478E-17
 [a.u.] -> [fs]                                             2.41888432650478E-02
 [a.u.] -> [J]                                              4.35974393937059E-18
 [a.u.] -> [N]                                              8.23872205491840E-08
 [a.u.] -> [K]                                              3.15774647902944E+05
 [a.u.] -> [kJ/mol]                                         2.62549961709828E+03
 [a.u.] -> [kcal/mol]                                       6.27509468713739E+02
 [a.u.] -> [Pa]                                             2.94210107994716E+13
 [a.u.] -> [bar]                                            2.94210107994716E+08
 [a.u.] -> [atm]                                            2.90362800883016E+08
 [a.u.] -> [eV]                                             2.72113838565563E+01
 [a.u.] -> [Hz]                                             6.57968392072181E+15
 [a.u.] -> [1/cm] (wave numbers)                            2.19474631370540E+05
 [a.u./Bohr**2] -> [1/cm]                                   5.14048714338585E+03
 

 CELL_TOP| Volume [angstrom^3]:                                       799.709138
 CELL_TOP| Vector a [angstrom     7.088     0.000     0.000   |a| =     7.088191
 CELL_TOP| Vector b [angstrom     0.000    11.067     0.000   |b| =    11.067325
 CELL_TOP| Vector c [angstrom     0.000     0.000    10.194   |c| =    10.194221
 CELL_TOP| Angle (b,c), alpha [degree]:                                90.000000
 CELL_TOP| Angle (a,c), beta  [degree]:                                90.000000
 CELL_TOP| Angle (a,b), gamma [degree]:                                90.000000
 CELL_TOP| Numerically orthorhombic:                                         YES

 GENERATE|  Preliminary Number of Bonds generated:                             0
 GENERATE|  Achieved consistency in connectivity generation.

 CELL| Volume [angstrom^3]:                                           799.709138
 CELL| Vector a [angstrom]:       7.088     0.000     0.000   |a| =     7.088191
 CELL| Vector b [angstrom]:       0.000    11.067     0.000   |b| =    11.067325
 CELL| Vector c [angstrom]:       0.000     0.000    10.194   |c| =    10.194221
 CELL| Angle (b,c), alpha [degree]:                                    90.000000
 CELL| Angle (a,c), beta  [degree]:                                    90.000000
 CELL| Angle (a,b), gamma [degree]:                                    90.000000
 CELL| Numerically orthorhombic:                                             YES

 CELL_REF| Volume [angstrom^3]:                                      4752.129161
 CELL_REF| Vector a [angstrom    10.789     0.000     0.000   |a| =    10.788679
 CELL_REF| Vector b [angstrom     0.000    16.177     0.000   |b| =    16.177243
 CELL_REF| Vector c [angstrom     0.000     0.000    27.228   |c| =    27.227981
 CELL_REF| Angle (b,c), alpha [degree]:                                90.000000
 CELL_REF| Angle (a,c), beta  [degree]:                                90.000000
 CELL_REF| Angle (a,b), gamma [degree]:                                90.000000
 CELL_REF| Numerically orthorhombic:                                         YES

 *******************************************************************************
                                    Kpoints
 *******************************************************************************
 BRILLOUIN| K-point scheme                                        Monkhorst-Pack
 BRILLOUIN| K-Point grid                                             6    4    4
 BRILLOUIN| Accuracy in Symmetry determination                      0.100000E-07
 BRILLOUIN| K-Point point group symmetrization                               OFF
 BRILLOUIN| Wavefunction type                                            COMPLEX
 BRILLOUIN| List of Kpoints [2 Pi/Bohr]                                       48
 BRILLOUIN| Number           Weight            X              Y              Z
 BRILLOUIN|     1           0.02083       -0.41667       -0.37500       -0.37500
 BRILLOUIN|     2           0.02083       -0.41667       -0.37500       -0.12500
 BRILLOUIN|     3           0.02083       -0.41667       -0.37500        0.12500
 BRILLOUIN|     4           0.02083       -0.41667       -0.37500        0.37500
 BRILLOUIN|     5           0.02083       -0.41667       -0.12500       -0.37500
 BRILLOUIN|     6           0.02083       -0.41667       -0.12500       -0.12500
 BRILLOUIN|     7           0.02083       -0.41667       -0.12500        0.12500
 BRILLOUIN|     8           0.02083       -0.41667       -0.12500        0.37500
 BRILLOUIN|     9           0.02083       -0.41667        0.12500       -0.37500
 BRILLOUIN|    10           0.02083       -0.41667        0.12500       -0.12500
 BRILLOUIN|    11           0.02083       -0.41667        0.12500        0.12500
 BRILLOUIN|    12           0.02083       -0.41667        0.12500        0.37500
 BRILLOUIN|    13           0.02083       -0.41667        0.37500       -0.37500
 BRILLOUIN|    14           0.02083       -0.41667        0.37500       -0.12500
 BRILLOUIN|    15           0.02083       -0.41667        0.37500        0.12500
 BRILLOUIN|    16           0.02083       -0.41667        0.37500        0.37500
 BRILLOUIN|    17           0.02083       -0.25000       -0.37500       -0.37500
 BRILLOUIN|    18           0.02083       -0.25000       -0.37500       -0.12500
 BRILLOUIN|    19           0.02083       -0.25000       -0.37500        0.12500
 BRILLOUIN|    20           0.02083       -0.25000       -0.37500        0.37500
 BRILLOUIN|    21           0.02083       -0.25000       -0.12500       -0.37500
 BRILLOUIN|    22           0.02083       -0.25000       -0.12500       -0.12500
 BRILLOUIN|    23           0.02083       -0.25000       -0.12500        0.12500
 BRILLOUIN|    24           0.02083       -0.25000       -0.12500        0.37500
 BRILLOUIN|    25           0.02083       -0.25000        0.12500       -0.37500
 BRILLOUIN|    26           0.02083       -0.25000        0.12500       -0.12500
 BRILLOUIN|    27           0.02083       -0.25000        0.12500        0.12500
 BRILLOUIN|    28           0.02083       -0.25000        0.12500        0.37500
 BRILLOUIN|    29           0.02083       -0.25000        0.37500       -0.37500
 BRILLOUIN|    30           0.02083       -0.25000        0.37500       -0.12500
 BRILLOUIN|    31           0.02083       -0.25000        0.37500        0.12500
 BRILLOUIN|    32           0.02083       -0.25000        0.37500        0.37500
 BRILLOUIN|    33           0.02083       -0.08333       -0.37500       -0.37500
 BRILLOUIN|    34           0.02083       -0.08333       -0.37500       -0.12500
 BRILLOUIN|    35           0.02083       -0.08333       -0.37500        0.12500
 BRILLOUIN|    36           0.02083       -0.08333       -0.37500        0.37500
 BRILLOUIN|    37           0.02083       -0.08333       -0.12500       -0.37500
 BRILLOUIN|    38           0.02083       -0.08333       -0.12500       -0.12500
 BRILLOUIN|    39           0.02083       -0.08333       -0.12500        0.12500
 BRILLOUIN|    40           0.02083       -0.08333       -0.12500        0.37500
 BRILLOUIN|    41           0.02083       -0.08333        0.12500       -0.37500
 BRILLOUIN|    42           0.02083       -0.08333        0.12500       -0.12500
 BRILLOUIN|    43           0.02083       -0.08333        0.12500        0.12500
 BRILLOUIN|    44           0.02083       -0.08333        0.12500        0.37500
 BRILLOUIN|    45           0.02083       -0.08333        0.37500       -0.37500
 BRILLOUIN|    46           0.02083       -0.08333        0.37500       -0.12500
 BRILLOUIN|    47           0.02083       -0.08333        0.37500        0.12500
 BRILLOUIN|    48           0.02083       -0.08333        0.37500        0.37500
 *******************************************************************************

 *******************************************************************************
 *******************************************************************************
 **                                                                           **
 **     #####                         ##              ##                      **
 **    ##   ##            ##          ##              ##                      **
 **   ##     ##                       ##            ######                    **
 **   ##     ##  ##   ##  ##   #####  ##  ##   ####   ##    #####    #####    **
 **   ##     ##  ##   ##  ##  ##      ## ##   ##      ##   ##   ##  ##   ##   **
 **   ##  ## ##  ##   ##  ##  ##      ####     ###    ##   ######   ######    **
 **    ##  ###   ##   ##  ##  ##      ## ##      ##   ##   ##       ##        **
 **     #######   #####   ##   #####  ##  ##  ####    ##    #####   ##        **
 **           ##                                                    ##        **
 **                                                                           **
 **                                                ... make the atoms dance   **
 **                                                                           **
 **            Copyright (C) by CP2K developers group (2000-2021)             **
 **                      J. Chem. Phys. 152, 194103 (2020)                    **
 **                                                                           **
 *******************************************************************************

 DFT| Spin restricted Kohn-Sham (RKS) calculation                            RKS
 DFT| Multiplicity                                                             1
 DFT| Number of spin states                                                    1
 DFT| Charge                                                                   0
 DFT| Self-interaction correction (SIC)                                       NO
 DFT| Cutoffs: density                                              1.000000E-10
 DFT|          gradient                                             1.000000E-10
 DFT|          tau                                                  1.000000E-10
 DFT|          cutoff_smoothing_range                               0.000000E+00
 DFT| XC density smoothing                                                  NONE
 DFT| XC derivatives                                                          PW
 FUNCTIONAL| ROUTINE=NEW
 FUNCTIONAL| LIBXC Vers. 5.2.2 (Marques, Oliveira, Burnus, CPC 183, 2272 (2012))
 FUNCTIONAL| Re-regularized SCAN exchange by Furness et al (exchange):
 FUNCTIONAL| [1] J. W. Furness, A. D. Kaplan, J. Ning, J. P. Perdew, and J. Sun,
 FUNCTIONAL|  J. Phys. Chem. Lett. 11, 8208 (2020), doi: 10.1021/acs.jpclett.0c0
 FUNCTIONAL| 2405                                                               
 FUNCTIONAL| Optional external parameters:                                      
 FUNCTIONAL|  * c1 parameter                                                    
 FUNCTIONAL|  * c2 parameter                                                    
 FUNCTIONAL|  * d parameter                                                     
 FUNCTIONAL|  * k1 parameter                                                    
 FUNCTIONAL|  * eta parameter                                                   
 FUNCTIONAL|  * dp2 parameter                                                   
 FUNCTIONAL| [2] J. W. Furness, A. D. Kaplan, J. Ning, J. P. Perdew, and J. Sun,
 FUNCTIONAL|  J. Phys. Chem. Lett. 11, 9248 (2020), doi: 10.1021/acs.jpclett.0c0
 FUNCTIONAL| 3077                                                               
 FUNCTIONAL| Optional external parameters:                                      
 FUNCTIONAL|  * c1 parameter                                                    
 FUNCTIONAL|  * c2 parameter                                                    
 FUNCTIONAL|  * d parameter                                                     
 FUNCTIONAL|  * k1 parameter                                                    
 FUNCTIONAL|  * eta parameter                                                   
 FUNCTIONAL|  * dp2 parameter                                                   
 FUNCTIONAL| {scale=1.000, spin-unpolarized}                                    
 FUNCTIONAL| LIBXC Vers. 5.2.2 (Marques, Oliveira, Burnus, CPC 183, 2272 (2012))
 FUNCTIONAL| Re-regularized SCAN correlation by Furness et al (correlation):
 FUNCTIONAL| [1] J. W. Furness, A. D. Kaplan, J. Ning, J. P. Perdew, and J. Sun,
 FUNCTIONAL|  J. Phys. Chem. Lett. 11, 8208 (2020), doi: 10.1021/acs.jpclett.0c0
 FUNCTIONAL| 2405                                                               
 FUNCTIONAL| Optional external parameters:                                      
 FUNCTIONAL|  * Regularization parameter                                        
 FUNCTIONAL| [2] J. W. Furness, A. D. Kaplan, J. Ning, J. P. Perdew, and J. Sun,
 FUNCTIONAL|  J. Phys. Chem. Lett. 11, 9248 (2020), doi: 10.1021/acs.jpclett.0c0
 FUNCTIONAL| 3077                                                               
 FUNCTIONAL| Optional external parameters:                                      
 FUNCTIONAL|  * Regularization parameter                                        
 FUNCTIONAL| {scale=1.000, spin-unpolarized}                                    

 QS| Method:                                                                 GPW
 QS| Density plane wave grid type                        NON-SPHERICAL FULLSPACE
 QS| Number of grid levels:                                                    4
 QS| Density cutoff [a.u.]:                                                275.0
 QS| Multi grid cutoff [a.u.]: 1) grid level                               275.0
 QS|                           2) grid level                                91.7
 QS|                           3) grid level                                30.6
 QS|                           4) grid level                                10.2
 QS| Grid level progression factor:                                          3.0
 QS| Relative density cutoff [a.u.]:                                        50.0
 QS| Interaction thresholds: eps_pgf_orb:                                1.0E-07
 QS|                         eps_filter_matrix:                          0.0E+00
 QS|                         eps_core_charge:                            1.0E-16
 QS|                         eps_rho_gspace:                             1.0E-14
 QS|                         eps_rho_rspace:                             1.0E-14
 QS|                         eps_gvg_rspace:                             1.0E-07
 QS|                         eps_ppl:                                    1.0E-02
 QS|                         eps_ppnl:                                   1.0E-09


 ATOMIC KIND INFORMATION

  1. Atomic kind: Te                                    Number of atoms:      16

     Orbital Basis Set                                    TZV2P-MOLOPT-SR-GTH-q6

       Number of orbital shell sets:                                           1
       Number of orbital shells:                                               8
       Number of primitive Cartesian functions:                                5
       Number of Cartesian basis functions:                                   24
       Number of spherical basis functions:                                   22
       Norm type:                                                              2

       Normalised Cartesian orbitals:

                        Set   Shell   Orbital            Exponent    Coefficient

                          1       1    2s                0.871171      -1.283555
                                                         0.666553       0.727767
                                                         0.260565       0.315590
                                                         0.171877       0.145933
                                                         0.082234      -0.112006

                          1       2    3s                0.871171      -0.113073
                                                         0.666553      -0.049522
                                                         0.260565       0.148709
                                                         0.171877      -0.027419
                                                         0.082234       0.086101

                          1       3    4s                0.871171      -0.058826
                                                         0.666553       0.095028
                                                         0.260565      -0.125580
                                                         0.171877       0.168849
                                                         0.082234       0.056377

                          1       4    3px               0.871171      -0.448888
                                                         0.666553       0.314691
                                                         0.260565       0.091584
                                                         0.171877       0.056613
                                                         0.082234       0.019970
                          1       4    3py               0.871171      -0.448888
                                                         0.666553       0.314691
                                                         0.260565       0.091584
                                                         0.171877       0.056613
                                                         0.082234       0.019970
                          1       4    3pz               0.871171      -0.448888
                                                         0.666553       0.314691
                                                         0.260565       0.091584
                                                         0.171877       0.056613
                                                         0.082234       0.019970

                          1       5    4px               0.871171       0.509800
                                                         0.666553      -0.488606
                                                         0.260565       0.059935
                                                         0.171877      -0.006230
                                                         0.082234       0.059949
                          1       5    4py               0.871171       0.509800
                                                         0.666553      -0.488606
                                                         0.260565       0.059935
                                                         0.171877      -0.006230
                                                         0.082234       0.059949
                          1       5    4pz               0.871171       0.509800
                                                         0.666553      -0.488606
                                                         0.260565       0.059935
                                                         0.171877      -0.006230
                                                         0.082234       0.059949

                          1       6    5px               0.871171       0.590563
                                                         0.666553      -0.436145
                                                         0.260565      -0.152598
                                                         0.171877       0.293256
                                                         0.082234      -0.019391
                          1       6    5py               0.871171       0.590563
                                                         0.666553      -0.436145
                                                         0.260565      -0.152598
                                                         0.171877       0.293256
                                                         0.082234      -0.019391
                          1       6    5pz               0.871171       0.590563
                                                         0.666553      -0.436145
                                                         0.260565      -0.152598
                                                         0.171877       0.293256
                                                         0.082234      -0.019391

                          1       7    4dx2              0.871171       0.508208
                                                         0.666553      -0.381585
                                                         0.260565      -0.096684
                                                         0.171877      -0.006209
                                                         0.082234      -0.006013
                          1       7    4dxy              0.871171       0.880243
                                                         0.666553      -0.660925
                                                         0.260565      -0.167462
                                                         0.171877      -0.010754
                                                         0.082234      -0.010416
                          1       7    4dxz              0.871171       0.880243
                                                         0.666553      -0.660925
                                                         0.260565      -0.167462
                                                         0.171877      -0.010754
                                                         0.082234      -0.010416
                          1       7    4dy2              0.871171       0.508208
                                                         0.666553      -0.381585
                                                         0.260565      -0.096684
                                                         0.171877      -0.006209
                                                         0.082234      -0.006013
                          1       7    4dyz              0.871171       0.880243
                                                         0.666553      -0.660925
                                                         0.260565      -0.167462
                                                         0.171877      -0.010754
                                                         0.082234      -0.010416
                          1       7    4dz2              0.871171       0.508208
                                                         0.666553      -0.381585
                                                         0.260565      -0.096684
                                                         0.171877      -0.006209
                                                         0.082234      -0.006013

                          1       8    5dx2              0.871171      -0.871718
                                                         0.666553       0.796262
                                                         0.260565      -0.095591
                                                         0.171877       0.090678
                                                         0.082234      -0.032316
                          1       8    5dxy              0.871171      -1.509859
                                                         0.666553       1.379167
                                                         0.260565      -0.165568
                                                         0.171877       0.157058
                                                         0.082234      -0.055972
                          1       8    5dxz              0.871171      -1.509859
                                                         0.666553       1.379167
                                                         0.260565      -0.165568
                                                         0.171877       0.157058
                                                         0.082234      -0.055972
                          1       8    5dy2              0.871171      -0.871718
                                                         0.666553       0.796262
                                                         0.260565      -0.095591
                                                         0.171877       0.090678
                                                         0.082234      -0.032316
                          1       8    5dyz              0.871171      -1.509859
                                                         0.666553       1.379167
                                                         0.260565      -0.165568
                                                         0.171877       0.157058
                                                         0.082234      -0.055972
                          1       8    5dz2              0.871171      -0.871718
                                                         0.666553       0.796262
                                                         0.260565      -0.095591
                                                         0.171877       0.090678
                                                         0.082234      -0.032316

       Atomic covalent radius [Angstrom]:                                  1.360

       Atomic van der Waals radius [Angstrom]:                             2.060

     GTH Potential information for                                   GTH-SCAN-q6

       Description:                       Goedecker-Teter-Hutter pseudopotential
                                           Goedecker et al., PRB 54, 1703 (1996)
                                          Hartwigsen et al., PRB 58, 3641 (1998)
                                                      Krack, TCA 114, 145 (2005)

       Gaussian exponent of the core charge distribution:               1.522390
       Electronic configuration (s p d ...):                       2   4   0   0

       Parameters of the local part of the GTH pseudopotential:

                          rloc        C1          C2          C3          C4
                        0.573089    8.669096

       Parameters of the non-local part of the GTH pseudopotential:

                   l      r(l)      h(i,j,l)

                   0    0.576027    1.400888    0.978779   -0.486307
                                    0.978779   -2.054554    1.255637
                                   -0.486307    1.255637   -0.996571
                   1    0.586761    0.757379    0.323985
                                    0.323985   -0.392534
                   2    0.813403    0.323698


 MOLECULE KIND INFORMATION


 All atoms are their own molecule, skipping detailed information


 TOTAL NUMBERS AND MAXIMUM NUMBERS

  Total number of            - Atomic kinds:                                   1
                             - Atoms:                                         16
                             - Shell sets:                                    16
                             - Shells:                                       128
                             - Primitive Cartesian functions:                 80
                             - Cartesian basis functions:                    384
                             - Spherical basis functions:                    352

  Maximum angular momentum of- Orbital basis functions:                        2
                             - Local part of the GTH pseudopotential:          0
                             - Non-local part of the GTH pseudopotential:      4


 MODULE QUICKSTEP:  ATOMIC COORDINATES IN angstrom

 Atom  Kind  Element       X           Y           Z          Z(eff)       Mass
    1   1 Te  52       5.946015   10.490184    8.353978       6.0000    127.6000
    2   1 Te  52       1.142175    0.577141    3.256869       6.0000    127.6000
    3   1 Te  52       5.946015    0.577141    1.840242       6.0000    127.6000
    4   1 Te  52       1.142175   10.490184    6.937352       6.0000    127.6000
    5   1 Te  52       3.544095    8.853801    2.548555       6.0000    127.6000
    6   1 Te  52       3.544095    2.213524    7.645665       6.0000    127.6000
    7   1 Te  52       1.787409    3.775310    6.205940       6.0000    127.6000
    8   1 Te  52       5.300781    7.292015    1.108830       6.0000    127.6000
    9   1 Te  52       1.787409    7.292015    3.988280       6.0000    127.6000
   10   1 Te  52       5.300781    3.775310    9.085390       6.0000    127.6000
   11   1 Te  52       2.403310    8.368411    8.343202       6.0000    127.6000
   12   1 Te  52       4.684880    2.698914    3.246092       6.0000    127.6000
   13   1 Te  52       2.403310    2.698914    1.851018       6.0000    127.6000
   14   1 Te  52       4.684880    8.368411    6.948128       6.0000    127.6000
   15   1 Te  52       0.000000    5.773372    2.548555       6.0000    127.6000
   16   1 Te  52       0.000000    5.293953    7.645665       6.0000    127.6000




 SCF PARAMETERS         Density guess:                                   RESTART
                        --------------------------------------------------------
                        max_scf:                                              50
                        max_scf_history:                                       0
                        max_diis:                                              4
                        --------------------------------------------------------
                        eps_scf:                                        5.00E-07
                        eps_scf_history:                                0.00E+00
                        eps_diis:                                       1.00E-01
                        eps_eigval:                                     1.00E-05
                        --------------------------------------------------------
                        level_shift [a.u.]:                                 0.00
                        added MOs                                        72    0
                        --------------------------------------------------------
                        Mixing method:                            BROYDEN_MIXING
                                                charge density mixing in g-space
                        --------------------------------------------------------
                        No outer SCF

 PW_GRID| Information for grid number                                          1
 PW_GRID| Grid distributed over                                    24 processors
 PW_GRID| Real space group dimensions                                    24    1
 PW_GRID| the grid is blocked:                                                NO
 PW_GRID| Cutoff [a.u.]                                                    275.0
 PW_GRID| spherical cutoff:                                                   NO
 PW_GRID|   Bounds   1            -77      76                Points:         154
 PW_GRID|   Bounds   2           -115     115                Points:         231
 PW_GRID|   Bounds   3           -192     192                Points:         385
 PW_GRID| Volume element (a.u.^3)  0.2341E-02     Volume (a.u.^3)     32068.9576
 PW_GRID| Grid span                                                    FULLSPACE
 PW_GRID|   Distribution                         Average         Max         Min
 PW_GRID|   G-Vectors                           570666.2      570724      570570
 PW_GRID|   G-Rays                                3705.6        3706        3705
 PW_GRID|   Real Space Points                   570666.2      622545      533610

 PW_GRID| Information for grid number                                          2
 PW_GRID| Number of the reference grid                                         1
 PW_GRID| Grid distributed over                                    24 processors
 PW_GRID| Real space group dimensions                                    24    1
 PW_GRID| the grid is blocked:                                                NO
 PW_GRID| Cutoff [a.u.]                                                     91.7
 PW_GRID| spherical cutoff:                                                   NO
 PW_GRID|   Bounds   1            -44      43                Points:          88
 PW_GRID|   Bounds   2            -66      65                Points:         132
 PW_GRID|   Bounds   3           -112     111                Points:         224
 PW_GRID| Volume element (a.u.^3)  0.1232E-01     Volume (a.u.^3)     32068.9576
 PW_GRID| Grid span                                                    FULLSPACE
 PW_GRID|   Distribution                         Average         Max         Min
 PW_GRID|   G-Vectors                           108416.0      108504      108240
 PW_GRID|   G-Rays                                1232.0        1233        1230
 PW_GRID|   Real Space Points                   108416.0      118272       88704

 PW_GRID| Information for grid number                                          3
 PW_GRID| Number of the reference grid                                         1
 PW_GRID| Grid distributed over                                    24 processors
 PW_GRID| Real space group dimensions                                    24    1
 PW_GRID| the grid is blocked:                                                NO
 PW_GRID| Cutoff [a.u.]                                                     30.6
 PW_GRID| spherical cutoff:                                                   NO
 PW_GRID|   Bounds   1            -27      26                Points:          54
 PW_GRID|   Bounds   2            -38      38                Points:          77
 PW_GRID|   Bounds   3            -66      65                Points:         132
 PW_GRID| Volume element (a.u.^3)  0.5843E-01     Volume (a.u.^3)     32068.9576
 PW_GRID| Grid span                                                    FULLSPACE
 PW_GRID|   Distribution                         Average         Max         Min
 PW_GRID|   G-Vectors                            22869.0       23058       22734
 PW_GRID|   G-Rays                                 423.5         427         421
 PW_GRID|   Real Space Points                    22869.0       30492       20328

 PW_GRID| Information for grid number                                          4
 PW_GRID| Number of the reference grid                                         1
 PW_GRID| Grid distributed over                                    24 processors
 PW_GRID| Real space group dimensions                                    24    1
 PW_GRID| the grid is blocked:                                                NO
 PW_GRID| Cutoff [a.u.]                                                     10.2
 PW_GRID| spherical cutoff:                                                   NO
 PW_GRID|   Bounds   1            -15      14                Points:          30
 PW_GRID|   Bounds   2            -22      21                Points:          44
 PW_GRID|   Bounds   3            -37      37                Points:          75
 PW_GRID| Volume element (a.u.^3)  0.3239         Volume (a.u.^3)     32068.9576
 PW_GRID| Grid span                                                    FULLSPACE
 PW_GRID|   Distribution                         Average         Max         Min
 PW_GRID|   G-Vectors                             4125.0        4200        4020
 PW_GRID|   G-Rays                                 137.5         140         134
 PW_GRID|   Real Space Points                     4125.0        6600        3300

 POISSON| Solver                                                        PERIODIC
 POISSON| Periodicity                                                        XYZ

 RS_GRID| Information for grid number                                          1
 RS_GRID|   Bounds   1            -77      76                Points:         154
 RS_GRID|   Bounds   2           -115     115                Points:         231
 RS_GRID|   Bounds   3           -192     192                Points:         385
 RS_GRID| Real space fully replicated
 RS_GRID| Group size                                                           1

 RS_GRID| Information for grid number                                          2
 RS_GRID|   Bounds   1            -44      43                Points:          88
 RS_GRID|   Bounds   2            -66      65                Points:         132
 RS_GRID|   Bounds   3           -112     111                Points:         224
 RS_GRID| Real space fully replicated
 RS_GRID| Group size                                                           1

 RS_GRID| Information for grid number                                          3
 RS_GRID|   Bounds   1            -27      26                Points:          54
 RS_GRID|   Bounds   2            -38      38                Points:          77
 RS_GRID|   Bounds   3            -66      65                Points:         132
 RS_GRID| Real space fully replicated
 RS_GRID| Group size                                                           1

 RS_GRID| Information for grid number                                          4
 RS_GRID|   Bounds   1            -15      14                Points:          30
 RS_GRID|   Bounds   2            -22      21                Points:          44
 RS_GRID|   Bounds   3            -37      37                Points:          75
 RS_GRID| Real space fully replicated
 RS_GRID| Group size                                                           1

 KPOINTS| Number of kpoint groups                                             24
 KPOINTS| Size of each kpoint group                                            1
 KPOINTS| Number of kpoints per group                                          2

 CELL_OPT| Pressure tolerance [bar]:                                       100.0
 CELL_OPT| Keep angles between the cell vectors:                             YES
 CELL_OPT| Keep cell symmetry:                                                NO
 CELL_OPT| Constraint:                                                      NONE

 *******************************************************************************
 ***                     STARTING   CELL   OPTIMIZATION                      ***
 ***                           CONJUGATE GRADIENTS                           ***
 *******************************************************************************

 -------------------------------------------------------------------------------
 ----                   SPACE GROUP SYMMETRY INFORMATION                    ----
 -------------------------------------------------------------------------------
 SPGR| SPACE GROUP NUMBER:                                                    17
 SPGR| INTERNATIONAL SYMBOL:                                              P222_1
 SPGR| POINT GROUP SYMBOL:                                                   222
 SPGR| SCHOENFLIES SYMBOL:                                                  D2^2
 SPGR| NUMBER OF SYMMETRY OPERATIONS:                                          4
 SPGR| NUMBER OF UNIQUE ROTATIONS:                                             4
 SPGR| NUMBER OF REDUCED SYMMETRY OPERATIONS:                                  4
 SPGR| NUMBER OF PARTICLES AND SYMMETRIZED PARTICLES:                 16      16
 SPGR| NUMBER OF ATOMS AND SYMMETRIZED ATOMS:                         16      16
 SPGR| NUMBER OF CORES AND SYMMETRIZED CORES:                          0       0
 SPGR| NUMBER OF SHELLS AND SYMMETRIZED SHELLS:                        0       0

 CELL| Volume [angstrom^3]:                                           799.709138
 CELL| Vector a [angstrom]:       7.088     0.000     0.000   |a| =     7.088191
 CELL| Vector b [angstrom]:       0.000    11.067     0.000   |b| =    11.067325
 CELL| Vector c [angstrom]:       0.000     0.000    10.194   |c| =    10.194221
 CELL| Angle (b,c), alpha [degree]:                                    90.000000
 CELL| Angle (a,c), beta  [degree]:                                    90.000000
 CELL| Angle (a,b), gamma [degree]:                                    90.000000
 CELL| Numerically orthorhombic:                                             YES

 Number of electrons:                                                         96
 Number of occupied orbitals:                                                 48
 Number of molecular orbitals:                                               120

 Number of orbital functions:                                                352
 Number of independent orbital functions:                                    352

 Extrapolation method: initial_guess

 *** WARNING in qs_initial_guess.F:309 :: User requested to restart the    ***
 *** wavefunction from the file named: aiida-RESTART.kp. This file does    ***
 *** not exist. Please check the existence of the file or change properly  ***
 *** the value of the keyword WFN_RESTART_FILE_NAME. Calculation continues ***
 *** using ATOMIC GUESS.                                                   ***


 Atomic guess: The first density matrix is obtained in terms of atomic orbitals
               and electronic configurations assigned to each atomic kind

 Guess for atomic kind: Te

 Electronic structure
    Total number of core electrons                                         46.00
    Total number of valence electrons                                       6.00
    Total number of electrons                                              52.00
    Multiplicity                                                   not specified
    S   [  2.00  2.00  2.00  2.00] 2.00
    P   [  6.00  6.00  6.00] 4.00
    D   [ 10.00 10.00]


 *******************************************************************************
                  Iteration          Convergence                     Energy [au]
 *******************************************************************************
                          1        0.458009                      -7.861387894360
                          2        0.231916                      -7.947787374930
                          3        0.154937E-01                  -7.972348105464
                          4        0.151360E-03                  -7.972456880687
                          5        0.383072E-05                  -7.972456898031
                          6        0.622640E-08                  -7.972456898034

 Energy components [Hartree]           Total Energy ::           -7.972456898034
                                        Band Energy ::           -1.844021836137
                                     Kinetic Energy ::            2.435281614579
                                   Potential Energy ::          -10.407738512613
                                      Virial (-V/T) ::            4.273730992879
                                        Core Energy ::          -12.940503869085
                                          XC Energy ::           -1.667229009733
                                     Coulomb Energy ::            6.635275980784
                       Total Pseudopotential Energy ::          -15.444783554265
                       Local Pseudopotential Energy ::          -15.720213774553
                    Nonlocal Pseudopotential Energy ::            0.275430220289
                                        Confinement ::            0.689980706005

 Orbital energies  State     L     Occupation   Energy[a.u.]          Energy[eV]

                       1     0          2.000      -0.529382          -14.405225

                       1     1          4.000      -0.196314           -5.341984


 Total Electron Density at R=0:                                         0.001080
 Re-scaling the density matrix to get the right number of electrons
                  # Electrons              Trace(P)               Scaling factor
                           96                96.000                        1.000


 SCF WAVEFUNCTION OPTIMIZATION

  Step     Update method      Time    Convergence         Total energy    Change
  ------------------------------------------------------------------------------
     1 NoMix/Diag. 0.50E+00   59.9     0.64591488      -131.2200121831 -1.31E+02
     2 Broy./Diag. 0.50E+00   71.0     0.02369223      -131.4761161242 -2.56E-01
     3 Broy./Diag. 0.50E+00   68.4     0.02119366      -131.0773808119  3.99E-01
     4 Broy./Diag. 0.50E+00   70.4     0.00392454      -130.9703220510  1.07E-01
     5 Broy./Diag. 0.50E+00   70.3     0.00296390      -130.9719222925 -1.60E-03
     6 Broy./Diag. 0.50E+00   70.1     0.00095790      -130.9715194324  4.03E-04
     7 Broy./Diag. 0.50E+00   69.7     0.00015696      -130.9695700719  1.95E-03
     8 Broy./Diag. 0.50E+00   69.2     0.00005959      -130.9693637151  2.06E-04
     9 Broy./Diag. 0.50E+00   69.1     0.00001901      -130.9691634048  2.00E-04
    10 Broy./Diag. 0.50E+00   69.5     0.00000633      -130.9691070366  5.64E-05
    11 Broy./Diag. 0.50E+00   68.9     0.00000319      -130.9691022506  4.79E-06
    12 Broy./Diag. 0.50E+00   71.1     0.00000067      -130.9691036604 -1.41E-06
    13 Broy./Diag. 0.50E+00   71.4     0.00000026      -130.9691038617 -2.01E-07

  *** SCF run converged in    13 steps ***


  Electronic density on regular grids:        -96.0000000000       -0.0000000000
  Core density on regular grids:               96.0000000000       -0.0000000000
  Total charge density on r-space grids:       -0.0000000000
  Total charge density g-space grids:          -0.0000000000

  Overlap energy of the core charge distribution:               0.00000002001576
  Self energy of the core charge distribution:               -283.52768307713814
  Core Hamiltonian energy:                                     57.06330553202388
  Hartree energy:                                             124.09345985292261
  Exchange-correlation energy:                                -28.59818618952490

  Total energy:                                              -130.96910386170077

 !-----------------------------------------------------------------------------!
                     Mulliken Population Analysis

 #  Atom  Element  Kind  Atomic population                           Net charge
       1     Te       1          5.998190                              0.001810
       2     Te       1          5.998191                              0.001809
       3     Te       1          5.998190                              0.001810
       4     Te       1          5.998191                              0.001809
       5     Te       1          6.015008                             -0.015008
       6     Te       1          6.015002                             -0.015002
       7     Te       1          6.017054                             -0.017054
       8     Te       1          6.017051                             -0.017051
       9     Te       1          6.017045                             -0.017045
      10     Te       1          6.017052                             -0.017052
      11     Te       1          5.967758                              0.032242
      12     Te       1          5.967759                              0.032241
      13     Te       1          5.967758                              0.032242
      14     Te       1          5.967759                              0.032241
      15     Te       1          6.018998                             -0.018998
      16     Te       1          6.018995                             -0.018995
 # Total charge                             96.000000                  0.000000

 !-----------------------------------------------------------------------------!

 !-----------------------------------------------------------------------------!
                           Hirshfeld Charges

  #Atom  Element  Kind  Ref Charge     Population                    Net charge
      1       Te     1       6.000          5.972                         0.028
      2       Te     1       6.000          5.972                         0.028
      3       Te     1       6.000          5.972                         0.028
      4       Te     1       6.000          5.972                         0.028
      5       Te     1       6.000          6.022                        -0.022
      6       Te     1       6.000          6.022                        -0.022
      7       Te     1       6.000          6.040                        -0.040
      8       Te     1       6.000          6.040                        -0.040
      9       Te     1       6.000          6.040                        -0.040
     10       Te     1       6.000          6.040                        -0.040
     11       Te     1       6.000          5.969                         0.031
     12       Te     1       6.000          5.969                         0.031
     13       Te     1       6.000          5.969                         0.031
     14       Te     1       6.000          5.969                         0.031
     15       Te     1       6.000          6.015                        -0.015
     16       Te     1       6.000          6.015                        -0.015

  Total Charge                                                           -0.000
 !-----------------------------------------------------------------------------!

 ENERGY| Total FORCE_EVAL ( QS ) energy [a.u.]:             -130.969104439517594

 SPGR STRESS| Symmetrized stress tensor [GPa]
 SPGR STRESS|                        x                   y                   z
 SPGR STRESS|      x        1.56367185308E-02   0.00000000000E+00   0.00000000000E+00
 SPGR STRESS|      y        0.00000000000E+00   1.79099866321E-02   0.00000000000E+00
 SPGR STRESS|      z        0.00000000000E+00   0.00000000000E+00   9.36642228758E-03
 SPGR STRESS| 1/3 Trace                                             1.43043758168E-02
 SPGR STRESS| Determinant                                           2.62309859346E-06

 SPGR STRESS| Eigenvectors and eigenvalues of the symmetrized stress tensor [GPa]
 SPGR STRESS|                        1                   2                   3
 SPGR STRESS| Eigenvalues   9.36642228758E-03   1.56367185308E-02   1.79099866321E-02
 SPGR STRESS|      x           0.000000000000      1.000000000000      0.000000000000
 SPGR STRESS|      y           0.000000000000      0.000000000000      1.000000000000
 SPGR STRESS|      z           1.000000000000      0.000000000000      0.000000000000

 --------  Informations at step =     0 ------------
  Optimization Method        =                   SD
  Total Energy               =      -130.9691044395
  Internal Pressure [bar]    =       143.0437581683
  Used time                  =              966.657
 ---------------------------------------------------

 --------------------------
 OPTIMIZATION STEP:      1
 --------------------------

 CELL| Volume [angstrom^3]:                                           799.716149
 CELL| Vector a [angstrom]:       7.088     0.000     0.000   |a| =     7.088231
 CELL| Vector b [angstrom]:       0.000    11.067     0.000   |b| =    11.067361
 CELL| Vector c [angstrom]:       0.000     0.000    10.194   |c| =    10.194217
 CELL| Angle (b,c), alpha [degree]:                                    90.000000
 CELL| Angle (a,c), beta  [degree]:                                    90.000000
 CELL| Angle (a,b), gamma [degree]:                                    90.000000
 CELL| Numerically orthorhombic:                                             YES

 -------------------------------------------------------------------------------
 ----                             MULTIGRID INFO                            ----
 -------------------------------------------------------------------------------
 count for grid        1:              0          cutoff [a.u.]          275.00
 count for grid        2:         106054          cutoff [a.u.]           91.67
 count for grid        3:          58586          cutoff [a.u.]           30.56
 count for grid        4:          10364          cutoff [a.u.]           10.19
 total gridlevel count  :         175004

 PW_GRID| Information for grid number                                          5
 PW_GRID| Grid distributed over                                    24 processors
 PW_GRID| Real space group dimensions                                    24    1
 PW_GRID| the grid is blocked:                                                NO
 PW_GRID| Cutoff [a.u.]                                                    275.0
 PW_GRID| spherical cutoff:                                                   NO
 PW_GRID|   Bounds   1            -77      76                Points:         154
 PW_GRID|   Bounds   2           -115     115                Points:         231
 PW_GRID|   Bounds   3           -192     192                Points:         385
 PW_GRID| Volume element (a.u.^3)  0.2341E-02     Volume (a.u.^3)     32068.9576
 PW_GRID| Grid span                                                    FULLSPACE
 PW_GRID|   Distribution                         Average         Max         Min
 PW_GRID|   G-Vectors                           570666.2      570724      570570
 PW_GRID|   G-Rays                                3705.6        3706        3705
 PW_GRID|   Real Space Points                   570666.2      622545      533610

 PW_GRID| Information for grid number                                          6
 PW_GRID| Number of the reference grid                                         5
 PW_GRID| Grid distributed over                                    24 processors
 PW_GRID| Real space group dimensions                                    24    1
 PW_GRID| the grid is blocked:                                                NO
 PW_GRID| Cutoff [a.u.]                                                     91.7
 PW_GRID| spherical cutoff:                                                   NO
 PW_GRID|   Bounds   1            -44      43                Points:          88
 PW_GRID|   Bounds   2            -66      65                Points:         132
 PW_GRID|   Bounds   3           -112     111                Points:         224
 PW_GRID| Volume element (a.u.^3)  0.1232E-01     Volume (a.u.^3)     32068.9576
 PW_GRID| Grid span                                                    FULLSPACE
 PW_GRID|   Distribution                         Average         Max         Min
 PW_GRID|   G-Vectors                           108416.0      108504      108240
 PW_GRID|   G-Rays                                1232.0        1233        1230
 PW_GRID|   Real Space Points                   108416.0      118272       88704

 PW_GRID| Information for grid number                                          7
 PW_GRID| Number of the reference grid                                         5
 PW_GRID| Grid distributed over                                    24 processors
 PW_GRID| Real space group dimensions                                    24    1
 PW_GRID| the grid is blocked:                                                NO
 PW_GRID| Cutoff [a.u.]                                                     30.6
 PW_GRID| spherical cutoff:                                                   NO
 PW_GRID|   Bounds   1            -27      26                Points:          54
 PW_GRID|   Bounds   2            -38      38                Points:          77
 PW_GRID|   Bounds   3            -66      65                Points:         132
 PW_GRID| Volume element (a.u.^3)  0.5843E-01     Volume (a.u.^3)     32068.9576
 PW_GRID| Grid span                                                    FULLSPACE
 PW_GRID|   Distribution                         Average         Max         Min
 PW_GRID|   G-Vectors                            22869.0       23058       22734
 PW_GRID|   G-Rays                                 423.5         427         421
 PW_GRID|   Real Space Points                    22869.0       30492       20328

 PW_GRID| Information for grid number                                          8
 PW_GRID| Number of the reference grid                                         5
 PW_GRID| Grid distributed over                                    24 processors
 PW_GRID| Real space group dimensions                                    24    1
 PW_GRID| the grid is blocked:                                                NO
 PW_GRID| Cutoff [a.u.]                                                     10.2
 PW_GRID| spherical cutoff:                                                   NO
 PW_GRID|   Bounds   1            -15      14                Points:          30
 PW_GRID|   Bounds   2            -22      21                Points:          44
 PW_GRID|   Bounds   3            -37      37                Points:          75
 PW_GRID| Volume element (a.u.^3)  0.3239         Volume (a.u.^3)     32068.9576
 PW_GRID| Grid span                                                    FULLSPACE
 PW_GRID|   Distribution                         Average         Max         Min
 PW_GRID|   G-Vectors                             4125.0        4200        4020
 PW_GRID|   G-Rays                                 137.5         140         134
 PW_GRID|   Real Space Points                     4125.0        6600        3300

 POISSON| Solver                                                        PERIODIC
 POISSON| Periodicity                                                        XYZ

 RS_GRID| Information for grid number                                          5
 RS_GRID|   Bounds   1            -77      76                Points:         154
 RS_GRID|   Bounds   2           -115     115                Points:         231
 RS_GRID|   Bounds   3           -192     192                Points:         385
 RS_GRID| Real space fully replicated
 RS_GRID| Group size                                                           1

 RS_GRID| Information for grid number                                          6
 RS_GRID|   Bounds   1            -44      43                Points:          88
 RS_GRID|   Bounds   2            -66      65                Points:         132
 RS_GRID|   Bounds   3           -112     111                Points:         224
 RS_GRID| Real space fully replicated
 RS_GRID| Group size                                                           1

 RS_GRID| Information for grid number                                          7
 RS_GRID|   Bounds   1            -27      26                Points:          54
 RS_GRID|   Bounds   2            -38      38                Points:          77
 RS_GRID|   Bounds   3            -66      65                Points:         132
 RS_GRID| Real space fully replicated
 RS_GRID| Group size                                                           1

 RS_GRID| Information for grid number                                          8
 RS_GRID|   Bounds   1            -15      14                Points:          30
 RS_GRID|   Bounds   2            -22      21                Points:          44
 RS_GRID|   Bounds   3            -37      37                Points:          75
 RS_GRID| Real space fully replicated
 RS_GRID| Group size                                                           1

 Number of electrons:                                                         96
 Number of occupied orbitals:                                                 48
 Number of molecular orbitals:                                               120

 Number of orbital functions:                                                352
 Number of independent orbital functions:                                    352

 Extrapolation method: initial_guess


 SCF WAVEFUNCTION OPTIMIZATION

  Step     Update method      Time    Convergence         Total energy    Change
  ------------------------------------------------------------------------------
     1 Broy./Diag. 0.50E+00   59.7     0.00006695      -130.9690437661 -1.31E+02
     2 Broy./Diag. 0.50E+00   70.1     0.00002385      -130.9690337823  9.98E-06
     3 Broy./Diag. 0.50E+00   72.2     0.00000942      -130.9690988807 -6.51E-05
     4 Broy./Diag. 0.50E+00   69.0     0.00000328      -130.9691129854 -1.41E-05
     5 Broy./Diag. 0.50E+00   71.5     0.00000240      -130.9691081341  4.85E-06
     6 Broy./Diag. 0.50E+00   69.8     0.00000099      -130.9691054285  2.71E-06
     7 Broy./Diag. 0.50E+00   71.0     0.00000021      -130.9691044855  9.43E-07

  *** SCF run converged in     7 steps ***


  Electronic density on regular grids:        -96.0000002085       -0.0000002085
  Core density on regular grids:               96.0000000000       -0.0000000000
  Total charge density on r-space grids:       -0.0000002085
  Total charge density g-space grids:          -0.0000002085

  Overlap energy of the core charge distribution:               0.00000002000733
  Self energy of the core charge distribution:               -283.52768307713814
  Core Hamiltonian energy:                                     57.06308238302120
  Hartree energy:                                             124.09360010610455
  Exchange-correlation energy:                                -28.59810391747464

  Total energy:                                              -130.96910448547968

 !-----------------------------------------------------------------------------!
                     Mulliken Population Analysis

 #  Atom  Element  Kind  Atomic population                           Net charge
       1     Te       1          5.998188                              0.001812
       2     Te       1          5.998190                              0.001810
       3     Te       1          5.998189                              0.001811
       4     Te       1          5.998190                              0.001810
       5     Te       1          6.015015                             -0.015015
       6     Te       1          6.015009                             -0.015009
       7     Te       1          6.017059                             -0.017059
       8     Te       1          6.017057                             -0.017057
       9     Te       1          6.017050                             -0.017050
      10     Te       1          6.017057                             -0.017057
      11     Te       1          5.967752                              0.032248
      12     Te       1          5.967752                              0.032248
      13     Te       1          5.967751                              0.032249
      14     Te       1          5.967752                              0.032248
      15     Te       1          6.018996                             -0.018996
      16     Te       1          6.018993                             -0.018993
 # Total charge                             96.000000                  0.000000

 !-----------------------------------------------------------------------------!

 !-----------------------------------------------------------------------------!
                           Hirshfeld Charges

  #Atom  Element  Kind  Ref Charge     Population                    Net charge
      1       Te     1       6.000          5.972                         0.028
      2       Te     1       6.000          5.972                         0.028
      3       Te     1       6.000          5.972                         0.028
      4       Te     1       6.000          5.972                         0.028
      5       Te     1       6.000          6.022                        -0.022
      6       Te     1       6.000          6.022                        -0.022
      7       Te     1       6.000          6.040                        -0.040
      8       Te     1       6.000          6.040                        -0.040
      9       Te     1       6.000          6.040                        -0.040
     10       Te     1       6.000          6.040                        -0.040
     11       Te     1       6.000          5.969                         0.031
     12       Te     1       6.000          5.969                         0.031
     13       Te     1       6.000          5.969                         0.031
     14       Te     1       6.000          5.969                         0.031
     15       Te     1       6.000          6.015                        -0.015
     16       Te     1       6.000          6.015                        -0.015

  Total Charge                                                           -0.000
 !-----------------------------------------------------------------------------!

 ENERGY| Total FORCE_EVAL ( QS ) energy [a.u.]:             -130.969104705741302

 SPGR STRESS| Symmetrized stress tensor [GPa]
 SPGR STRESS|                        x                   y                   z
 SPGR STRESS|      x        1.44412194556E-02   0.00000000000E+00   0.00000000000E+00
 SPGR STRESS|      y        0.00000000000E+00   1.72773251594E-02   0.00000000000E+00
 SPGR STRESS|      z        0.00000000000E+00   0.00000000000E+00   8.69553543417E-03
 SPGR STRESS| 1/3 Trace                                             1.34713600164E-02
 SPGR STRESS| Determinant                                           2.16958517044E-06

 SPGR STRESS| Eigenvectors and eigenvalues of the symmetrized stress tensor [GPa]
 SPGR STRESS|                        1                   2                   3
 SPGR STRESS| Eigenvalues   8.69553543417E-03   1.44412194556E-02   1.72773251594E-02
 SPGR STRESS|      x           0.000000000000      1.000000000000      0.000000000000
 SPGR STRESS|      y           0.000000000000      0.000000000000      1.000000000000
 SPGR STRESS|      z           1.000000000000      0.000000000000      0.000000000000

 *******************************************************************************
 ***                          2PNT LINE SEARCH INFO                          ***
 ***                                                                         ***
 ***   DX (EVALUATED)=    0.000510          DX (THRESHOLD)=    0.250000      ***
 ***   DX (FITTED   )=    0.005211          DX (ACCEPTED )=    0.005211      ***
 *******************************************************************************

 --------  Informations at step =     1 ------------
  Optimization Method        =                   SD
  Total Energy               =      -130.9691044395
  Internal Pressure [bar]    =       134.7136001637
  Real energy change         =         0.0000000000
  Decrease in energy         =                  YES
  Used time                  =              570.498

  Convergence check :
  Max. step size             =         0.0018286774
  Conv. limit for step size  =         0.0030000000
  Convergence in step size   =                  YES
  RMS step size              =         0.0007091955
  Conv. limit for RMS step   =         0.0015000000
  Convergence in RMS step    =                  YES
  Max. gradient              =         0.0001791030
  Conv. limit for gradients  =         0.0000970000
  Conv. for gradients        =                   NO
  RMS gradient               =         0.0000694594
  Conv. limit for RMS grad.  =         0.0003000000
  Conv. in RMS gradients     =                  YES
  Pressure Deviation [bar]   =        34.7136001637
  Pressure Tolerance [bar]   =       100.0000000000
  Conv. for  PRESSURE        =                  YES
 ---------------------------------------------------

 CELL| Volume [angstrom^3]:                                           799.780722
 CELL| Vector a [angstrom]:       7.089     0.000     0.000   |a| =     7.088608
 CELL| Vector b [angstrom]:       0.000    11.068     0.000   |b| =    11.067699
 CELL| Vector c [angstrom]:       0.000     0.000    10.194   |c| =    10.194188
 CELL| Angle (b,c), alpha [degree]:                                    90.000000
 CELL| Angle (a,c), beta  [degree]:                                    90.000000
 CELL| Angle (a,b), gamma [degree]:                                    90.000000
 CELL| Numerically orthorhombic:                                             YES

 -------------------------------------------------------------------------------
 ----                             MULTIGRID INFO                            ----
 -------------------------------------------------------------------------------
 count for grid        1:              0          cutoff [a.u.]          275.00
 count for grid        2:         106054          cutoff [a.u.]           91.67
 count for grid        3:          58586          cutoff [a.u.]           30.56
 count for grid        4:          10364          cutoff [a.u.]           10.19
 total gridlevel count  :         175004

 PW_GRID| Information for grid number                                          9
 PW_GRID| Grid distributed over                                    24 processors
 PW_GRID| Real space group dimensions                                    24    1
 PW_GRID| the grid is blocked:                                                NO
 PW_GRID| Cutoff [a.u.]                                                    275.0
 PW_GRID| spherical cutoff:                                                   NO
 PW_GRID|   Bounds   1            -77      76                Points:         154
 PW_GRID|   Bounds   2           -115     115                Points:         231
 PW_GRID|   Bounds   3           -192     192                Points:         385
 PW_GRID| Volume element (a.u.^3)  0.2341E-02     Volume (a.u.^3)     32068.9576
 PW_GRID| Grid span                                                    FULLSPACE
 PW_GRID|   Distribution                         Average         Max         Min
 PW_GRID|   G-Vectors                           570666.2      570724      570570
 PW_GRID|   G-Rays                                3705.6        3706        3705
 PW_GRID|   Real Space Points                   570666.2      622545      533610

 PW_GRID| Information for grid number                                         10
 PW_GRID| Number of the reference grid                                         9
 PW_GRID| Grid distributed over                                    24 processors
 PW_GRID| Real space group dimensions                                    24    1
 PW_GRID| the grid is blocked:                                                NO
 PW_GRID| Cutoff [a.u.]                                                     91.7
 PW_GRID| spherical cutoff:                                                   NO
 PW_GRID|   Bounds   1            -44      43                Points:          88
 PW_GRID|   Bounds   2            -66      65                Points:         132
 PW_GRID|   Bounds   3           -112     111                Points:         224
 PW_GRID| Volume element (a.u.^3)  0.1232E-01     Volume (a.u.^3)     32068.9576
 PW_GRID| Grid span                                                    FULLSPACE
 PW_GRID|   Distribution                         Average         Max         Min
 PW_GRID|   G-Vectors                           108416.0      108504      108240
 PW_GRID|   G-Rays                                1232.0        1233        1230
 PW_GRID|   Real Space Points                   108416.0      118272       88704

 PW_GRID| Information for grid number                                         11
 PW_GRID| Number of the reference grid                                         9
 PW_GRID| Grid distributed over                                    24 processors
 PW_GRID| Real space group dimensions                                    24    1
 PW_GRID| the grid is blocked:                                                NO
 PW_GRID| Cutoff [a.u.]                                                     30.6
 PW_GRID| spherical cutoff:                                                   NO
 PW_GRID|   Bounds   1            -27      26                Points:          54
 PW_GRID|   Bounds   2            -38      38                Points:          77
 PW_GRID|   Bounds   3            -66      65                Points:         132
 PW_GRID| Volume element (a.u.^3)  0.5843E-01     Volume (a.u.^3)     32068.9576
 PW_GRID| Grid span                                                    FULLSPACE
 PW_GRID|   Distribution                         Average         Max         Min
 PW_GRID|   G-Vectors                            22869.0       23058       22734
 PW_GRID|   G-Rays                                 423.5         427         421
 PW_GRID|   Real Space Points                    22869.0       30492       20328

 PW_GRID| Information for grid number                                         12
[...]
     3 Broy./Diag. 0.50E+00   70.2     0.00004127      -130.9690612472 -1.37E-04
     4 Broy./Diag. 0.50E+00   71.3     0.00001256      -130.9690764393 -1.52E-05
     5 Broy./Diag. 0.50E+00   70.2     0.00000923      -130.9690631135  1.33E-05
     6 Broy./Diag. 0.50E+00   68.8     0.00000297      -130.9690529772  1.01E-05
     7 Broy./Diag. 0.50E+00   72.3     0.00000070      -130.9690498283  3.15E-06
     8 Broy./Diag. 0.50E+00   69.9     0.00000022      -130.9690498331 -4.82E-09

  *** SCF run converged in     8 steps ***


  Electronic density on regular grids:        -95.9999703021        0.0000296979
  Core density on regular grids:               96.0000091606        0.0000091606
  Total charge density on r-space grids:        0.0000388585
  Total charge density g-space grids:           0.0000366911

  Overlap energy of the core charge distribution:               0.00000001996092
  Self energy of the core charge distribution:               -283.52768307713814
  Core Hamiltonian energy:                                     57.06169193269027
  Hartree energy:                                             124.09484987806690
  Exchange-correlation energy:                                -28.59790858672087

  Total energy:                                              -130.96904983314093

 !-----------------------------------------------------------------------------!
                     Mulliken Population Analysis

 #  Atom  Element  Kind  Atomic population                           Net charge
       1     Te       1          5.998314                              0.001686
       2     Te       1          5.998017                              0.001983
       3     Te       1          5.998067                              0.001933
       4     Te       1          5.998070                              0.001930
       5     Te       1          6.015399                             -0.015399
       6     Te       1          6.015502                             -0.015502
       7     Te       1          6.016521                             -0.016521
       8     Te       1          6.016507                             -0.016507
       9     Te       1          6.016509                             -0.016509
      10     Te       1          6.016522                             -0.016522
      11     Te       1          5.968001                              0.031999
      12     Te       1          5.967983                              0.032017
      13     Te       1          5.967981                              0.032019
      14     Te       1          5.967454                              0.032546
      15     Te       1          6.019571                             -0.019571
      16     Te       1          6.019584                             -0.019584
 # Total charge                             96.000000                  0.000000

 !-----------------------------------------------------------------------------!

 !-----------------------------------------------------------------------------!
                           Hirshfeld Charges

  #Atom  Element  Kind  Ref Charge     Population                    Net charge
      1       Te     1       6.000          5.972                         0.028
      2       Te     1       6.000          5.972                         0.028
      3       Te     1       6.000          5.972                         0.028
      4       Te     1       6.000          5.972                         0.028
      5       Te     1       6.000          6.022                        -0.022
      6       Te     1       6.000          6.022                        -0.022
      7       Te     1       6.000          6.040                        -0.040
      8       Te     1       6.000          6.040                        -0.040
      9       Te     1       6.000          6.040                        -0.040
     10       Te     1       6.000          6.040                        -0.040
     11       Te     1       6.000          5.969                         0.031
     12       Te     1       6.000          5.969                         0.031
     13       Te     1       6.000          5.969                         0.031
     14       Te     1       6.000          5.969                         0.031
     15       Te     1       6.000          6.016                        -0.016
     16       Te     1       6.000          6.016                        -0.016

  Total Charge                                                            0.000
 !-----------------------------------------------------------------------------!

 ENERGY| Total FORCE_EVAL ( QS ) energy [a.u.]:             -130.969049833140929

 -------------------------------------------------------------------------------
 -                                                                             -
 -                                DBCSR STATISTICS                             -
 -                                                                             -
 -------------------------------------------------------------------------------
 COUNTER                                    TOTAL       BLAS       SMM       ACC
 flops inhomo. stacks                           0       0.0%      0.0%      0.0%
 flops total                         0.000000E+00       0.0%      0.0%      0.0%
 flops max/rank                      0.000000E+00       0.0%      0.0%      0.0%
 matmuls inhomo. stacks                         0       0.0%      0.0%      0.0%
 matmuls total                                  0       0.0%      0.0%      0.0%
 number of processed stacks                     0       0.0%      0.0%      0.0%
 average stack size                                     0.0       0.0       0.0
 marketing flops                     0.000000E+00
 -------------------------------------------------------------------------------
 -                                                                             -
 -                      DBCSR MESSAGE PASSING PERFORMANCE                      -
 -                                                                             -
 -------------------------------------------------------------------------------
 ROUTINE             CALLS      AVE VOLUME [Bytes]
 MP_Bcast                1                     12.
 MP_Allreduce        26044                      8.
 MP_Alltoall        728166                  25737.
 -------------------------------------------------------------------------------

 -------------------------------------------------------------------------------
 -                                                                             -
 -                                GRID STATISTICS                              -
 -                                                                             -
 -------------------------------------------------------------------------------
 LP    KERNEL             BACKEND                              COUNT     PERCENT
 4     collocate ortho    REF                                3459664      25.06%
 6     collocate ortho    REF                                3459664      25.06%
 4     integrate ortho    REF                                3055748      22.14%
 6     integrate ortho    REF                                3055748      22.14%
 7     integrate ortho    REF                                 386344       2.80%
 9     integrate ortho    REF                                 386344       2.80%
 0     collocate general  REF                                    736       0.01%
 0     integrate general  REF                                    368       0.00%
 3     integrate general  REF                                    352       0.00%
 -------------------------------------------------------------------------------

 MEMORY| Estimated peak process memory [MiB]                                1244

 -------------------------------------------------------------------------------
 ----                             MULTIGRID INFO                            ----
 -------------------------------------------------------------------------------
 count for grid        1:              0          cutoff [a.u.]          275.00
 count for grid        2:         106058          cutoff [a.u.]           91.67
 count for grid        3:          58594          cutoff [a.u.]           30.56
 count for grid        4:          10360          cutoff [a.u.]           10.19
 total gridlevel count  :         175012

 -------------------------------------------------------------------------------
 -                                                                             -
 -                         MESSAGE PASSING PERFORMANCE                         -
 -                                                                             -
 -------------------------------------------------------------------------------

 ROUTINE             CALLS      AVE VOLUME [Bytes]
 MP_Group               93
 MP_Bcast           332745                   5109.
 MP_Allreduce        15749                   2851.
 MP_Sync                92
 MP_Alltoall          5280               20875104.
 MP_ISendRecv        74405                1652150.
 MP_Wait            285477
 MP_ISend           215424                  11257.
 MP_IRecv           365568                   6316.
 MP_Recv             15260                  90112.
 -------------------------------------------------------------------------------


 -------------------------------------------------------------------------------
 -                                                                             -
 -                           R E F E R E N C E S                               -
 -                                                                             -
 -------------------------------------------------------------------------------
 
 CP2K version 9.1, the CP2K developers group (2021).
 CP2K is freely available from https://www.cp2k.org/ .

 Kuehne,Thomas D.; Iannuzzi,Marcella; Del Ben,Mauro;
 Rybkin,Vladimir V.; Seewald,Patrick; Stein,Frederick; Laino,Teodoro;
 Khaliullin,Rustam Z.; Schuett,Ole; Schiffmann,Florian; Golze,Dorothea;
 Wilhelm,Jan; Chulkov,Sergey; Bani-Hashemian,Mohammad Hossein;
 Weber,Valery; Borstnik,Urban; Taillefumier,Mathieu;
 Jakobovits,Alice Shoshana; Lazzaro,Alfio; Pabst,Hans; Mueller,Tiziano;
 Schade,Robert; Guidon,Manuel; Andermatt,Samuel; Holmberg,Nico;
 Schenter,Gregory K.; Hehn,Anna; Bussy,Augustin; Belleflamme,Fabian;
 Tabacchi,Gloria; Gloess,Andreas; Lass,Michael; Bethune,Iain;
 Mundy,Christopher J.; Plessl,Christian; Watkins,Matt;
 VandeVondele,Joost; Krack,Matthias; Hutter,Juerg. 
 The Journal of Chemical Physics, 152 (19), (2020). 
 CP2K: An electronic structure and molecular dynamics software package -
 Quickstep: Efficient and accurate electronic structure calculations.
 https://doi.org/10.1063/5.0007045

 Lehtola, S; Steigemann, C; Oliveira, MJT; Marques, MAL. 
 SoftwareX, 7, 1-5 (2018). 
 Recent developments in libxc - A comprehensive library of functionals
 for density functional theory.
 https://doi.org/10.1016/j.softx.2017.11.002

 Togo, Atsushi; Tanaka, Isao. arXiv, 1808.01590 (2018). 
 Spglib : a software library for crystal symmetry search.
 https://doi.org/xxx

 Schuett, Ole; Messmer, Peter; Hutter, Juerg; VandeVondele, Joost. 
 Electronic Structure Calculations on Graphics Processing Units, John
 Wiley & Sons, Ltd, 173-190 (2016). 
 GPU-Accelerated Sparse Matrix-Matrix Multiplication for
 Linear Scaling Density Functional Theory.
 https://doi.org/10.1002/9781118670712.ch8

 Heinecke, A; Henry, G; Hutchinson, M; Pabst, H. 
 Proceedings of Intl. Supercomputing Conference, 981-991 (2016). 
 LIBXSMM: Accelerating Small Matrix Multiplications
 by Runtime Code Generation.
 https://doi.org/10.1109/SC.2016.83

 Borstnik, U; VandeVondele, J; Weber, V; Hutter, J. 
 PARALLEL COMPUTING, 40 (5-6), 47-58 (2014). 
 Sparse matrix multiplication: The distributed block-compressed sparse
 row library.
 https://doi.org/10.1016/j.parco.2014.03.012

 Hutter, J; Iannuzzi, M; Schiffmann, F; VandeVondele, J. 
 WIREs Comput Mol Sci., 4 (1), 15-25 (2014). 
 CP2K: atomistic simulations of condensed matter systems.
 https://doi.org/10.1002/wcms.1159

 Marques, MAL; Oliveira, MJT; Burnus, T. 
 COMPUTER PHYSICS COMMUNICATIONS, 183 (10), 2272-2281 (2012). 
 LIBXC: A library of exchange and correlation functionals for density
 functional theory.
 https://doi.org/10.1016/j.cpc.2012.05.007

 VandeVondele, J; Hutter, J. 
 JOURNAL OF CHEMICAL PHYSICS, 127 (11), 114105 (2007). 
 Gaussian basis sets for accurate calculations on molecular systems in
 gas and condensed phases.
 https://doi.org/10.1063/1.2770708

 Krack, M. 
 THEORETICAL CHEMISTRY ACCOUNTS, 114 (1-3), 145-152 (2005). 
 Pseudopotentials for H to Kr optimized for gradient-corrected
 exchange-correlation functionals.
 https://doi.org/10.1007/s00214-005-0655-y

 VandeVondele, J; Krack, M; Mohamed, F; Parrinello, M; Chassaing, T;
 Hutter, J. COMPUTER PHYSICS COMMUNICATIONS, 167 (2), 103-128 (2005). 
 QUICKSTEP: Fast and accurate density functional calculations using a
 mixed Gaussian and plane waves approach.
 https://doi.org/10.1016/j.cpc.2004.12.014

 Frigo, M; Johnson, SG. 
 PROCEEDINGS OF THE IEEE, 93 (2), 216-231 (2005). 
 The design and implementation of FFTW3.
 https://doi.org/10.1109/JPROC.2004.840301

 Hartwigsen, C; Goedecker, S; Hutter, J. 
 PHYSICAL REVIEW B, 58 (7), 3641-3662 (1998). 
 Relativistic separable dual-space Gaussian pseudopotentials from H to Rn.
 https://doi.org/10.1103/PhysRevB.58.3641

 Lippert, G; Hutter, J; Parrinello, M. 
 MOLECULAR PHYSICS, 92 (3), 477-487 (1997). 
 A hybrid Gaussian and plane wave density functional scheme.
 https://doi.org/10.1080/002689797170220

 Goedecker, S; Teter, M; Hutter, J. 
 PHYSICAL REVIEW B, 54 (3), 1703-1710 (1996). 
 Separable dual-space Gaussian pseudopotentials.
 https://doi.org/10.1103/PhysRevB.54.1703


 -------------------------------------------------------------------------------
 -                                                                             -
 -                                T I M I N G                                  -
 -                                                                             -
 -------------------------------------------------------------------------------
 SUBROUTINE                       CALLS  ASD         SELF TIME        TOTAL TIME
                                MAXIMUM       AVERAGE  MAXIMUM  AVERAGE  MAXIMUM
 CP2K                                 1  1.0     0.05     0.08 13859.48 13859.50
 cp_cell_opt                          1  2.0     0.00     0.00 13858.52 13858.55
 geoopt_cg                            1  3.0     0.00     0.00 13858.52 13858.55
 cp_cg_main                           1  4.0     0.00     0.00 13858.51 13858.54
 cp_eval_at                          23  6.0     0.01     0.06 13858.01 13858.03
 qs_energies                         23  7.9     0.01     0.01 13462.34 13462.36
 qs_forces                           22  7.0     0.00     0.00 13246.06 13246.17
 scf_env_do_scf                      23  8.9     0.00     0.00 12652.13 12666.15
 scf_env_do_scf_inner_loop          174  9.7     0.05     0.65 12652.13 12666.15
 qs_scf_new_mos_kp                  174 10.7     0.00     0.00  8319.67  8422.05
 do_general_diag_kp                 174 11.7     0.21     0.25  8319.67  8422.05
 copy_dbcsr_to_fm                 34934 12.7     0.47     0.61  5624.29  5703.77
 dbcsr_complete_redistribute      55208 14.0     6.09     7.22  5561.72  5634.81
 cg_linmin                           11  5.0     0.00     0.00  5584.19  5584.20
 linmin_2pnt                         11  6.0     0.00     0.00  5584.19  5584.20
 rebuild_ks_matrix                  196 11.4     0.00     0.00  2408.93  2529.77
 qs_ks_build_kohn_sham_matrix       196 12.4     0.04     0.05  2408.93  2529.77
 mp_cart_sub                      69872 14.7  2423.28  2431.24  2423.28  2431.24
 dbcsr_desymmetrize_deep          68342 13.2     2.66     3.10  2237.89  2356.83
 qs_ks_update_qs_env                174 10.7     0.00     0.01  2093.24  2187.84
 mp_alltoall_d11v                370650 15.1  1841.02  1903.64  1841.02  1903.64
 pw_transfer                       5672 15.0     0.33     0.41  1677.04  1760.16
 fft_wrap_pw1pw2                   5280 16.0     0.05     0.06  1674.32  1757.44
 qs_rho_update_rho                  197 10.8     0.00     0.00  1733.11  1734.50
 calculate_rho_elec                 394 11.8     1.80     1.95  1733.11  1734.50
 fft3d_ps                          5280 18.0   145.70   171.20  1610.90  1694.03
 fft_wrap_pw1pw2_280               2922 17.0    13.28    14.39  1562.87  1642.85
 rs_pw_transfer                    3235 15.0     0.04     0.05  1411.72  1580.33
 mp_alltoall_z22v                  5280 20.0  1434.63  1509.80  1434.63  1509.80
 mp_waitall_1                    285477 15.2  1330.07  1502.65  1330.07  1502.65
 sum_up_and_integrate               196 13.4     0.41     0.46  1328.43  1443.41
 integrate_v_rspace                 392 14.4     0.46     0.50  1328.02  1443.01
 density_rs2pw                      394 12.8     0.02     0.02  1243.56  1426.04
 mp_alltoall_i11v                233966 14.7  1363.21  1403.79  1363.21  1403.79
 mp_alltoall_i22                 123550 14.6  1085.76  1215.03  1085.76  1215.03
 copy_fm_to_dbcsr                 20274 13.4     0.08     0.09  1081.75  1103.58
 kpoint_density_transform           196 12.4     0.07     0.08  1096.90  1097.62
 hybrid_alltoall_any              68342 14.2     0.53     0.64   961.47  1016.04
 cp_fm_start_copy_general         52224 13.0     3.79     5.51   933.83   946.37
 qs_vxc_create                      196 13.4     0.00     0.01   929.74   932.27
 xc_vxc_pw_create                   196 14.4    13.23    15.45   929.73   932.27
 potential_pw2rs                    392 15.4     0.07     0.08   826.31   920.04
 mp_allgather_i                  104448 14.0   774.28   846.64   774.28   846.64
 x_to_yz                           2701 19.5    21.76    23.81   776.53   786.55
 mp_cart_create                   35028 14.7   729.86   775.71   729.86   775.71
 rs_pw_transfer_RS2PW_280           440 14.6    37.45    45.67   591.16   772.76
 yz_to_x                           2579 18.5     8.68     9.68   688.54   767.41
 grid_integrate_task_list           392 15.4   501.25   707.41   501.25   707.41
 grid_collocate_task_list           394 12.8   478.27   636.85   478.27   636.85
 init_scf_run                        23  8.9     0.00     0.00   570.50   570.69
 scf_env_initial_rho_setup           23  9.9     0.00     0.01   570.50   570.69
 xc_rho_set_and_dset_create         196 15.4     0.49     0.53   501.75   518.67
 rs_pw_transfer_PW2RS_280           437 17.0    33.57    36.93   442.01   495.91
 write_kpoints_restart              174 10.7     0.61    14.46   470.52   484.16
 dbcsr_finalize                  161910 13.9    57.23    67.02   308.89   383.11
 qs_ks_update_qs_env_forces          22  8.0     0.00     0.00   351.75   378.19
 calculate_first_density_matrix      23 10.9     0.00     0.03   361.92   362.01
 read_kpoints_restart                22 12.0     0.01     0.02   361.70   361.76
 -------------------------------------------------------------------------------

 The number of warnings for this run is : 1
 
 -------------------------------------------------------------------------------
  **** **** ******  **  PROGRAM ENDED AT                 2022-12-15 14:24:35.145
 ***** ** ***  *** **   PROGRAM RAN ON                                   cfdh016
 **    ****   ******    PROGRAM RAN BY                                  pubo1141
 ***** **    ** ** **   PROGRAM PROCESS ID                                  4379
  **** **  *******  **  PROGRAM STOPPED IN /nfs/data/pubo1141/aiida-test_profile
                                           /89/05/873c-b7a6-4b5a-8422-b34460f78a
                                           30
