 DBCSR| CPU Multiplication driver                                           XSMM
 DBCSR| Multrec recursion limit                                              512
 DBCSR| Multiplication stack size                                           1000
 DBCSR| Maximum elements for images                                    UNLIMITED
 DBCSR| Multiplicative factor virtual images                                   1
 DBCSR| Use multiplication densification                                       T
 DBCSR| Multiplication size stacks                                             3
 DBCSR| Use memory pool for CPU allocation                                     F
 DBCSR| Number of 3D layers                                               SINGLE
 DBCSR| Use MPI memory allocation                                              F
 DBCSR| Use RMA algorithm                                                      F
 DBCSR| Use Communication thread                                               T
 DBCSR| Communication thread load                                             87
 DBCSR| MPI: My node id                                                        0
 DBCSR| MPI: Number of nodes                                                  96
 DBCSR| OMP: Current number of threads                                         1
 DBCSR| OMP: Max number of threads                                             1
 DBCSR| Split modifier for TAS multiplication algorithm                  1.0E+00


  **** **** ******  **  PROGRAM STARTED AT               2022-01-04 07:49:55.352
 ***** ** ***  *** **   PROGRAM STARTED ON                               gcn2719
 **    ****   ******    PROGRAM STARTED BY                              nichdsas
 ***** **    ** ** **   PROGRAM PROCESS ID                                 64661
  **** **  *******  **  PROGRAM STARTED IN /scratch/usr/nichdsas/cp2k-parser-tes
                                           ts/9.1/bands_spin_pol_medium

 CP2K| version string:                                          CP2K version 9.1
 CP2K| source code revision number:                                  git:d8d7100
 CP2K| cp2kflags: omp libint fftw3 libxc parallel mpi3 scalapack xsmm has_ieee_e
 CP2K|            xceptions spglib libvori libbqb
 CP2K| is freely available from                            https://www.cp2k.org/
 CP2K| Program compiled at                          Mon Jan  3 14:05:13 CET 2022
 CP2K| Program compiled on                                               glogin4
 CP2K| Program compiled for                                      hlrn-gompi-foss
 CP2K| Data directory path            /home/nichdsas/software/cp2k/cp2k-9.1/data
 CP2K| Input file name                                                 aiida.inp

 GLOBAL| Force Environment number                                              1
 GLOBAL| Basis set file name                                        BASIS_MOLOPT
 GLOBAL| Potential file name                                      GTH_POTENTIALS
 GLOBAL| MM Potential file name                                     MM_POTENTIAL
 GLOBAL| Coordinate file name                                      __STD_INPUT__
 GLOBAL| Method name                                                        CP2K
 GLOBAL| Project name                                            TiO2-bulk-bands
 GLOBAL| Run type                                                         ENERGY
 GLOBAL| FFT library                                                       FFTW3
 GLOBAL| Diagonalization library                                       ScaLAPACK
 GLOBAL| Orthonormality check for eigenvectors                          DISABLED
 GLOBAL| Matrix multiplication library                                 ScaLAPACK
 GLOBAL| All-to-all communication in single precision                          F
 GLOBAL| FFTs using library dependent lengths                                  F
 GLOBAL| Grid backend                                                       AUTO
 GLOBAL| Global print level                                               MEDIUM
 GLOBAL| MPI I/O enabled                                                       T
 GLOBAL| Total number of message passing processes                            96
 GLOBAL| Number of threads for this process                                    1
 GLOBAL| This output is from process                                           0
 GLOBAL| Stack size for threads created by OpenMP (OMP_STACKSIZE)        default
 GLOBAL| CPU model name             Intel(R) Xeon(R) Platinum 9242 CPU @ 2.30GHz
 GLOBAL| CPUID                                                              1003
 GLOBAL| Compiled for CPUID                                                    0

 *** HINT in environment.F:869 :: The compiler target flags (generic) used ***
 *** to build this binary cannot exploit all extensions of this CPU model  ***
 *** (x86_avx512). Consider compiler target flags as part of FCFLAGS and   ***
 *** CFLAGS (ARCH file).                                                   ***


 MEMORY| system memory details [Kb]
 MEMORY|                        rank 0           min           max       average
 MEMORY| MemTotal            394827332     394827332     394827332     394827332
 MEMORY| MemFree             359153932     359153856     359153932     359153908
 MEMORY| Buffers                     0             0             0             0
 MEMORY| Cached               16320372      16320372      16320372      16320372
 MEMORY| Slab                  2046108       2046108       2046108       2046108
 MEMORY| SReclaimable           332480        332480        332480        332480
 MEMORY| MemLikelyFree       375806784     375806708     375806784     375806760


 *** Fundamental physical constants (SI units) ***

 *** Literature: B. J. Mohr and B. N. Taylor,
 ***             CODATA recommended values of the fundamental physical
 ***             constants: 2006, Web Version 5.1
 ***             http://physics.nist.gov/constants

 Speed of light in vacuum [m/s]                             2.99792458000000E+08
 Magnetic constant or permeability of vacuum [N/A**2]       1.25663706143592E-06
 Electric constant or permittivity of vacuum [F/m]          8.85418781762039E-12
 Planck constant (h) [J*s]                                  6.62606896000000E-34
 Planck constant (h-bar) [J*s]                              1.05457162825177E-34
 Elementary charge [C]                                      1.60217648700000E-19
 Electron mass [kg]                                         9.10938215000000E-31
 Electron g factor [ ]                                     -2.00231930436220E+00
 Proton mass [kg]                                           1.67262163700000E-27
 Fine-structure constant                                    7.29735253760000E-03
 Rydberg constant [1/m]                                     1.09737315685270E+07
 Avogadro constant [1/mol]                                  6.02214179000000E+23
 Boltzmann constant [J/K]                                   1.38065040000000E-23
 Atomic mass unit [kg]                                      1.66053878200000E-27
 Bohr radius [m]                                            5.29177208590000E-11

 *** Conversion factors ***

 [u] -> [a.u.]                                              1.82288848426455E+03
 [Angstrom] -> [Bohr] = [a.u.]                              1.88972613288564E+00
 [a.u.] = [Bohr] -> [Angstrom]                              5.29177208590000E-01
 [a.u.] -> [s]                                              2.41888432650478E-17
 [a.u.] -> [fs]                                             2.41888432650478E-02
 [a.u.] -> [J]                                              4.35974393937059E-18
 [a.u.] -> [N]                                              8.23872205491840E-08
 [a.u.] -> [K]                                              3.15774647902944E+05
 [a.u.] -> [kJ/mol]                                         2.62549961709828E+03
 [a.u.] -> [kcal/mol]                                       6.27509468713739E+02
 [a.u.] -> [Pa]                                             2.94210107994716E+13
 [a.u.] -> [bar]                                            2.94210107994716E+08
 [a.u.] -> [atm]                                            2.90362800883016E+08
 [a.u.] -> [eV]                                             2.72113838565563E+01
 [a.u.] -> [Hz]                                             6.57968392072181E+15
 [a.u.] -> [1/cm] (wave numbers)                            2.19474631370540E+05
 [a.u./Bohr**2] -> [1/cm]                                   5.14048714338585E+03
 

 CELL_TOP| Volume [angstrom^3]:                                        64.280064
 CELL_TOP| Vector a [angstrom     4.653     0.000     0.000   |a| =     4.653000
 CELL_TOP| Vector b [angstrom     0.000     4.653     0.000   |b| =     4.653000
 CELL_TOP| Vector c [angstrom     0.000     0.000     2.969   |c| =     2.969000
 CELL_TOP| Angle (b,c), alpha [degree]:                                90.000000
 CELL_TOP| Angle (a,c), beta  [degree]:                                90.000000
 CELL_TOP| Angle (a,b), gamma [degree]:                                90.000000
 CELL_TOP| Numerically orthorhombic:                                         YES

 GENERATE|  Preliminary Number of Bonds generated:                             0
 GENERATE|  Achieved consistency in connectivity generation.

 CELL| Volume [angstrom^3]:                                            64.280064
 CELL| Vector a [angstrom]:       4.653     0.000     0.000   |a| =     4.653000
 CELL| Vector b [angstrom]:       0.000     4.653     0.000   |b| =     4.653000
 CELL| Vector c [angstrom]:       0.000     0.000     2.969   |c| =     2.969000
 CELL| Angle (b,c), alpha [degree]:                                    90.000000
 CELL| Angle (a,c), beta  [degree]:                                    90.000000
 CELL| Angle (a,b), gamma [degree]:                                    90.000000
 CELL| Numerically orthorhombic:                                             YES

 CELL_REF| Volume [angstrom^3]:                                        64.280064
 CELL_REF| Vector a [angstrom     4.653     0.000     0.000   |a| =     4.653000
 CELL_REF| Vector b [angstrom     0.000     4.653     0.000   |b| =     4.653000
 CELL_REF| Vector c [angstrom     0.000     0.000     2.969   |c| =     2.969000
 CELL_REF| Angle (b,c), alpha [degree]:                                90.000000
 CELL_REF| Angle (a,c), beta  [degree]:                                90.000000
 CELL_REF| Angle (a,b), gamma [degree]:                                90.000000
 CELL_REF| Numerically orthorhombic:                                         YES

 *******************************************************************************
                                    Kpoints
 *******************************************************************************
 BRILLOUIN| K-point scheme                                        Monkhorst-Pack
 BRILLOUIN| K-Point grid                                             2    2    3
 BRILLOUIN| Accuracy in Symmetry determination                      0.100000E-05
 BRILLOUIN| K-Point point group symmetrization                               OFF
 BRILLOUIN| Wavefunction type                                            COMPLEX
 BRILLOUIN| List of Kpoints [2 Pi/Bohr]                                        6
 BRILLOUIN| Number           Weight            X              Y              Z
 BRILLOUIN|     1           0.16667       -0.25000       -0.25000       -0.33333
 BRILLOUIN|     2           0.16667       -0.25000       -0.25000        0.00000
 BRILLOUIN|     3           0.16667       -0.25000       -0.25000        0.33333
 BRILLOUIN|     4           0.16667       -0.25000        0.25000       -0.33333
 BRILLOUIN|     5           0.16667       -0.25000        0.25000        0.00000
 BRILLOUIN|     6           0.16667       -0.25000        0.25000        0.33333
 *******************************************************************************

 *******************************************************************************
 *******************************************************************************
 **                                                                           **
 **     #####                         ##              ##                      **
 **    ##   ##            ##          ##              ##                      **
 **   ##     ##                       ##            ######                    **
 **   ##     ##  ##   ##  ##   #####  ##  ##   ####   ##    #####    #####    **
 **   ##     ##  ##   ##  ##  ##      ## ##   ##      ##   ##   ##  ##   ##   **
 **   ##  ## ##  ##   ##  ##  ##      ####     ###    ##   ######   ######    **
 **    ##  ###   ##   ##  ##  ##      ## ##      ##   ##   ##       ##        **
 **     #######   #####   ##   #####  ##  ##  ####    ##    #####   ##        **
 **           ##                                                    ##        **
 **                                                                           **
 **                                                ... make the atoms dance   **
 **                                                                           **
 **            Copyright (C) by CP2K developers group (2000-2021)             **
 **                      J. Chem. Phys. 152, 194103 (2020)                    **
 **                                                                           **
 *******************************************************************************

 DFT| Spin unrestricted (spin-polarized) Kohn-Sham calculation               UKS
 DFT| Multiplicity                                                             1
 DFT| Number of spin states                                                    2
 DFT| Charge                                                                   0
 DFT| Self-interaction correction (SIC)                                       NO
 DFT| Cutoffs: density                                              1.000000E-10
 DFT|          gradient                                             1.000000E-10
 DFT|          tau                                                  1.000000E-10
 DFT|          cutoff_smoothing_range                               0.000000E+00
 DFT| XC density smoothing                                                  NONE
 DFT| XC derivatives                                                          PW
 FUNCTIONAL| ROUTINE=NEW
 FUNCTIONAL| PBE:
 FUNCTIONAL| J.P.Perdew, K.Burke, M.Ernzerhof, Phys. Rev. Letter, vol. 77, n 18,
 FUNCTIONAL|  pp. 3865-3868, (1996){spin polarized}                             

 QS| Method:                                                                 GPW
 QS| Density plane wave grid type                        NON-SPHERICAL FULLSPACE
 QS| Number of grid levels:                                                    5
 QS| Density cutoff [a.u.]:                                                100.0
 QS| Multi grid cutoff [a.u.]: 1) grid level                               100.0
 QS|                           2) grid level                                33.3
 QS|                           3) grid level                                11.1
 QS|                           4) grid level                                 3.7
 QS|                           5) grid level                                 1.2
 QS| Grid level progression factor:                                          3.0
 QS| Relative density cutoff [a.u.]:                                        20.0
 QS| Interaction thresholds: eps_pgf_orb:                                1.0E-04
 QS|                         eps_filter_matrix:                          0.0E+00
 QS|                         eps_core_charge:                            1.0E-10
 QS|                         eps_rho_gspace:                             1.0E-08
 QS|                         eps_rho_rspace:                             1.0E-08
 QS|                         eps_gvg_rspace:                             1.0E-04
 QS|                         eps_ppl:                                    1.0E-02
 QS|                         eps_ppnl:                                   1.0E-06


 ATOMIC KIND INFORMATION

  1. Atomic kind: Ti                                    Number of atoms:       2

     Orbital Basis Set                                        DZVP-MOLOPT-SR-GTH

       Number of orbital shell sets:                                           1
       Number of orbital shells:                                               8
       Number of primitive Cartesian functions:                                6
       Number of Cartesian basis functions:                                   31
       Number of spherical basis functions:                                   26
       Norm type:                                                              2

       Normalised Cartesian orbitals:

                        Set   Shell   Orbital            Exponent    Coefficient

                          1       1    2s                7.884570       0.015554
                                                         3.894698       0.963603
                                                         1.513589      -0.631435
                                                         0.596768      -0.343022
                                                         0.222222      -0.006534
                                                         0.077078       0.007652

                          1       2    3s                7.884570      -0.009340
                                                         3.894698       0.212624
                                                         1.513589      -0.258368
                                                         0.596768      -0.226206
                                                         0.222222       0.039438
                                                         0.077078       0.107179

                          1       3    4s                7.884570       0.276563
                                                         3.894698       0.105452
                                                         1.513589       0.085149
                                                         0.596768       0.882541
                                                         0.222222      -0.696223
                                                         0.077078       0.156638

                          1       4    3px               7.884570      -2.034794
                                                         3.894698       0.782008
                                                         1.513589       1.253903
                                                         0.596768       0.347823
                                                         0.222222       0.016778
                                                         0.077078      -0.000433
                          1       4    3py               7.884570      -2.034794
                                                         3.894698       0.782008
                                                         1.513589       1.253903
                                                         0.596768       0.347823
                                                         0.222222       0.016778
                                                         0.077078      -0.000433
                          1       4    3pz               7.884570      -2.034794
                                                         3.894698       0.782008
                                                         1.513589       1.253903
                                                         0.596768       0.347823
                                                         0.222222       0.016778
                                                         0.077078      -0.000433

                          1       5    4px               7.884570       0.376572
                                                         3.894698      -0.182875
                                                         1.513589      -0.474776
                                                         0.596768      -0.081757
                                                         0.222222       0.064432
                                                         0.077078       0.047279
                          1       5    4py               7.884570       0.376572
                                                         3.894698      -0.182875
                                                         1.513589      -0.474776
                                                         0.596768      -0.081757
                                                         0.222222       0.064432
                                                         0.077078       0.047279
                          1       5    4pz               7.884570       0.376572
                                                         3.894698      -0.182875
                                                         1.513589      -0.474776
                                                         0.596768      -0.081757
                                                         0.222222       0.064432
                                                         0.077078       0.047279

                          1       6    4dx2              7.884570       3.047350
                                                         3.894698       3.289529
                                                         1.513589       1.060616
                                                         0.596768       0.249930
                                                         0.222222       0.038806
                                                         0.077078       0.002319
                          1       6    4dxy              7.884570       5.278165
                                                         3.894698       5.697631
                                                         1.513589       1.837041
                                                         0.596768       0.432892
                                                         0.222222       0.067214
                                                         0.077078       0.004017
                          1       6    4dxz              7.884570       5.278165
                                                         3.894698       5.697631
                                                         1.513589       1.837041
                                                         0.596768       0.432892
                                                         0.222222       0.067214
                                                         0.077078       0.004017
                          1       6    4dy2              7.884570       3.047350
                                                         3.894698       3.289529
                                                         1.513589       1.060616
                                                         0.596768       0.249930
                                                         0.222222       0.038806
                                                         0.077078       0.002319
                          1       6    4dyz              7.884570       5.278165
                                                         3.894698       5.697631
                                                         1.513589       1.837041
                                                         0.596768       0.432892
                                                         0.222222       0.067214
                                                         0.077078       0.004017
                          1       6    4dz2              7.884570       3.047350
                                                         3.894698       3.289529
                                                         1.513589       1.060616
                                                         0.596768       0.249930
                                                         0.222222       0.038806
                                                         0.077078       0.002319

                          1       7    5dx2              7.884570      -2.119015
                                                         3.894698      -1.237751
                                                         1.513589      -0.746777
                                                         0.596768      -0.071514
                                                         0.222222       0.004086
                                                         0.077078       0.017595
                          1       7    5dxy              7.884570      -3.670241
                                                         3.894698      -2.143848
                                                         1.513589      -1.293455
                                                         0.596768      -0.123865
                                                         0.222222       0.007077
                                                         0.077078       0.030475
                          1       7    5dxz              7.884570      -3.670241
                                                         3.894698      -2.143848
                                                         1.513589      -1.293455
                                                         0.596768      -0.123865
                                                         0.222222       0.007077
                                                         0.077078       0.030475
                          1       7    5dy2              7.884570      -2.119015
                                                         3.894698      -1.237751
                                                         1.513589      -0.746777
                                                         0.596768      -0.071514
                                                         0.222222       0.004086
                                                         0.077078       0.017595
                          1       7    5dyz              7.884570      -3.670241
                                                         3.894698      -2.143848
                                                         1.513589      -1.293455
                                                         0.596768      -0.123865
                                                         0.222222       0.007077
                                                         0.077078       0.030475
                          1       7    5dz2              7.884570      -2.119015
                                                         3.894698      -1.237751
                                                         1.513589      -0.746777
                                                         0.596768      -0.071514
                                                         0.222222       0.004086
                                                         0.077078       0.017595

                          1       8    5fx3              7.884570      -0.342058
                                                         3.894698       0.375798
                                                         1.513589      -0.706469
                                                         0.596768      -0.229994
                                                         0.222222      -0.012723
                                                         0.077078       0.003932
                          1       8    5fx2y             7.884570      -0.764866
                                                         3.894698       0.840310
                                                         1.513589      -1.579712
                                                         0.596768      -0.514282
                                                         0.222222      -0.028450
                                                         0.077078       0.008792
                          1       8    5fx2z             7.884570      -0.764866
                                                         3.894698       0.840310
                                                         1.513589      -1.579712
                                                         0.596768      -0.514282
                                                         0.222222      -0.028450
                                                         0.077078       0.008792
                          1       8    5fxy2             7.884570      -0.764866
                                                         3.894698       0.840310
                                                         1.513589      -1.579712
                                                         0.596768      -0.514282
                                                         0.222222      -0.028450
                                                         0.077078       0.008792
                          1       8    5fxyz             7.884570      -1.324787
                                                         3.894698       1.455460
                                                         1.513589      -2.736142
                                                         0.596768      -0.890763
                                                         0.222222      -0.049276
                                                         0.077078       0.015229
                          1       8    5fxz2             7.884570      -0.764866
                                                         3.894698       0.840310
                                                         1.513589      -1.579712
                                                         0.596768      -0.514282
                                                         0.222222      -0.028450
                                                         0.077078       0.008792
                          1       8    5fy3              7.884570      -0.342058
                                                         3.894698       0.375798
                                                         1.513589      -0.706469
                                                         0.596768      -0.229994
                                                         0.222222      -0.012723
                                                         0.077078       0.003932
                          1       8    5fy2z             7.884570      -0.764866
                                                         3.894698       0.840310
                                                         1.513589      -1.579712
                                                         0.596768      -0.514282
                                                         0.222222      -0.028450
                                                         0.077078       0.008792
                          1       8    5fyz2             7.884570      -0.764866
                                                         3.894698       0.840310
                                                         1.513589      -1.579712
                                                         0.596768      -0.514282
                                                         0.222222      -0.028450
                                                         0.077078       0.008792
                          1       8    5fz3              7.884570      -0.342058
                                                         3.894698       0.375798
                                                         1.513589      -0.706469
                                                         0.596768      -0.229994
                                                         0.222222      -0.012723
                                                         0.077078       0.003932

       Atomic covalent radius [Angstrom]:                                  1.320

       Atomic van der Waals radius [Angstrom]:                             1.760

     GTH Potential information for                                       GTH-PBE

       Description:                       Goedecker-Teter-Hutter pseudopotential
                                           Goedecker et al., PRB 54, 1703 (1996)
                                          Hartwigsen et al., PRB 58, 3641 (1998)
                                                      Krack, TCA 114, 145 (2005)

       Gaussian exponent of the core charge distribution:               3.462604
       Electronic configuration (s p d ...):                           4   6   2

       Parameters of the local part of the GTH pseudopotential:

                          rloc        C1          C2          C3          C4
                        0.380000    8.711442   -0.700287

       Parameters of the non-local part of the GTH pseudopotential:

                   l      r(l)      h(i,j,l)

                   0    0.337771    2.575264    3.692971
                                    3.692971   -4.767605
                   1    0.242531   -4.630541    8.870875
                                    8.870875  -10.496161
                   2    0.243317   -9.406653

  2. Atomic kind: O                                     Number of atoms:       4

     Orbital Basis Set                                           DZVP-MOLOPT-GTH

       Number of orbital shell sets:                                           1
       Number of orbital shells:                                               5
       Number of primitive Cartesian functions:                                7
       Number of Cartesian basis functions:                                   14
       Number of spherical basis functions:                                   13
       Norm type:                                                              2

       Normalised Cartesian orbitals:

                        Set   Shell   Orbital            Exponent    Coefficient

                          1       1    2s               12.015955      -0.284499
                                                         5.108150      -0.322498
                                                         2.048398       0.148191
                                                         0.832382       0.295475
                                                         0.352316       0.150829
                                                         0.142977       0.015788
                                                         0.046761      -0.000019

                          1       2    3s               12.015955       0.725622
                                                         5.108150       0.644384
                                                         2.048398      -0.157350
                                                         0.832382      -0.853528
                                                         0.352316       0.146068
                                                         0.142977       0.153978
                                                         0.046761       0.000658

                          1       3    3px              12.015955       1.192141
                                                         5.108150       1.354170
                                                         2.048398       0.897267
                                                         0.832382       0.408839
                                                         0.352316       0.116648
                                                         0.142977       0.022184
                                                         0.046761       0.000308
                          1       3    3py              12.015955       1.192141
                                                         5.108150       1.354170
                                                         2.048398       0.897267
                                                         0.832382       0.408839
                                                         0.352316       0.116648
                                                         0.142977       0.022184
                                                         0.046761       0.000308
                          1       3    3pz              12.015955       1.192141
                                                         5.108150       1.354170
                                                         2.048398       0.897267
                                                         0.832382       0.408839
                                                         0.352316       0.116648
                                                         0.142977       0.022184
                                                         0.046761       0.000308

                          1       4    4px              12.015955      -1.062381
                                                         5.108150      -1.285791
                                                         2.048398      -0.727000
                                                         0.832382      -0.522764
                                                         0.352316       0.182681
                                                         0.142977       0.087560
                                                         0.046761       0.000981
                          1       4    4py              12.015955      -1.062381
                                                         5.108150      -1.285791
                                                         2.048398      -0.727000
                                                         0.832382      -0.522764
                                                         0.352316       0.182681
                                                         0.142977       0.087560
                                                         0.046761       0.000981
                          1       4    4pz              12.015955      -1.062381
                                                         5.108150      -1.285791
                                                         2.048398      -0.727000
                                                         0.832382      -0.522764
                                                         0.352316       0.182681
                                                         0.142977       0.087560
                                                         0.046761       0.000981

                          1       5    4dx2             12.015955       1.125955
                                                         5.108150       1.160468
                                                         2.048398       0.999335
                                                         0.832382       0.756334
                                                         0.352316       0.048604
                                                         0.142977       0.010378
                                                         0.046761      -0.000027
                          1       5    4dxy             12.015955       1.950212
                                                         5.108150       2.009990
                                                         2.048398       1.730899
                                                         0.832382       1.310009
                                                         0.352316       0.084185
                                                         0.142977       0.017974
                                                         0.046761      -0.000046
                          1       5    4dxz             12.015955       1.950212
                                                         5.108150       2.009990
                                                         2.048398       1.730899
                                                         0.832382       1.310009
                                                         0.352316       0.084185
                                                         0.142977       0.017974
                                                         0.046761      -0.000046
                          1       5    4dy2             12.015955       1.125955
                                                         5.108150       1.160468
                                                         2.048398       0.999335
                                                         0.832382       0.756334
                                                         0.352316       0.048604
                                                         0.142977       0.010378
                                                         0.046761      -0.000027
                          1       5    4dyz             12.015955       1.950212
                                                         5.108150       2.009990
                                                         2.048398       1.730899
                                                         0.832382       1.310009
                                                         0.352316       0.084185
                                                         0.142977       0.017974
                                                         0.046761      -0.000046
                          1       5    4dz2             12.015955       1.125955
                                                         5.108150       1.160468
                                                         2.048398       0.999335
                                                         0.832382       0.756334
                                                         0.352316       0.048604
                                                         0.142977       0.010378
                                                         0.046761      -0.000027

       Atomic covalent radius [Angstrom]:                                  0.730

       Atomic van der Waals radius [Angstrom]:                             1.520

     GTH Potential information for                                       GTH-PBE

       Description:                       Goedecker-Teter-Hutter pseudopotential
                                           Goedecker et al., PRB 54, 1703 (1996)
                                          Hartwigsen et al., PRB 58, 3641 (1998)
                                                      Krack, TCA 114, 145 (2005)

       Gaussian exponent of the core charge distribution:               8.360253
       Electronic configuration (s p d ...):                               2   4

       Parameters of the local part of the GTH pseudopotential:

                          rloc        C1          C2          C3          C4
                        0.244554  -16.667215    2.487311

       Parameters of the non-local part of the GTH pseudopotential:

                   l      r(l)      h(i,j,l)

                   0    0.220956   18.337458
                   1    0.211332


 MOLECULE KIND INFORMATION


 All atoms are their own molecule, skipping detailed information


 TOTAL NUMBERS AND MAXIMUM NUMBERS

  Total number of            - Atomic kinds:                                   2
                             - Atoms:                                          6
                             - Shell sets:                                     6
                             - Shells:                                        36
                             - Primitive Cartesian functions:                 40
                             - Cartesian basis functions:                    118
                             - Spherical basis functions:                    104

  Maximum angular momentum of- Orbital basis functions:                        3
                             - Local part of the GTH pseudopotential:          2
                             - Non-local part of the GTH pseudopotential:      3


 MODULE QUICKSTEP:  ATOMIC COORDINATES IN angstrom

 Atom  Kind  Element       X           Y           Z          Z(eff)       Mass
    1   1 Ti  22       0.000000    0.000000    0.000000      12.0000     47.8670
    2   1 Ti  22       2.326500    2.326500    1.484500      12.0000     47.8670
    3   2 O    8       0.909196    3.743804    1.484500       6.0000     15.9994
    4   2 O    8       3.743804    0.909196    1.484500       6.0000     15.9994
    5   2 O    8       3.235696    3.235696    0.000000       6.0000     15.9994
    6   2 O    8       1.417304    1.417304    0.000000       6.0000     15.9994




 SCF PARAMETERS         Density guess:                                   RESTART
                        --------------------------------------------------------
                        max_scf:                                             150
                        max_scf_history:                                       0
                        max_diis:                                              4
                        --------------------------------------------------------
                        eps_scf:                                        1.00E-04
                        eps_scf_history:                                0.00E+00
                        eps_diis:                                       1.00E-01
                        eps_eigval:                                     1.00E-05
                        --------------------------------------------------------
                        level_shift [a.u.]:                                 0.00
                        --------------------------------------------------------
                        Mixing method:                            BROYDEN_MIXING
                                                charge density mixing in g-space
                        --------------------------------------------------------
                        No outer SCF

 PW_GRID| Information for grid number                                          1
 PW_GRID| Grid distributed over                                    96 processors
 PW_GRID| Real space group dimensions                                     8   12
 PW_GRID| the grid is blocked:                                               YES
 PW_GRID| Cutoff [a.u.]                                                    100.0
 PW_GRID| spherical cutoff:                                                   NO
 PW_GRID|   Bounds   1            -20      19                Points:          40
 PW_GRID|   Bounds   2            -20      19                Points:          40
 PW_GRID|   Bounds   3            -12      12                Points:          25
 PW_GRID| Volume element (a.u.^3)  0.1084E-01     Volume (a.u.^3)       433.7834
 PW_GRID| Grid span                                                    FULLSPACE
 PW_GRID|   Distribution                         Average         Max         Min
 PW_GRID|   G-Vectors                              416.7         600         400
 PW_GRID|   G-Rays                                  10.4          15          10
 PW_GRID|   Real Space Points                      416.7         600         400

 PW_GRID| Information for grid number                                          2
 PW_GRID| Number of the reference grid                                         1
 PW_GRID| Grid distributed over                                    96 processors
 PW_GRID| Real space group dimensions                                     8   12
 PW_GRID| the grid is blocked:                                                NO
 PW_GRID| Cutoff [a.u.]                                                     33.3
 PW_GRID| spherical cutoff:                                                   NO
 PW_GRID|   Bounds   1            -12      11                Points:          24
 PW_GRID|   Bounds   2            -12      11                Points:          24
 PW_GRID|   Bounds   3             -7       7                Points:          15
 PW_GRID| Volume element (a.u.^3)  0.5021E-01     Volume (a.u.^3)       433.7834
 PW_GRID| Grid span                                                    FULLSPACE
 PW_GRID|   Distribution                         Average         Max         Min
 PW_GRID|   G-Vectors                               90.0         240           0
 PW_GRID|   G-Rays                                   3.8          10           0
 PW_GRID|   Real Space Points                       90.0          90          90

 PW_GRID| Information for grid number                                          3
 PW_GRID| Number of the reference grid                                         1
 PW_GRID| Grid distributed over                                    96 processors
 PW_GRID| Real space group dimensions                                     8   12
 PW_GRID| the grid is blocked:                                                NO
 PW_GRID| Cutoff [a.u.]                                                     11.1
 PW_GRID| spherical cutoff:                                                   NO
 PW_GRID|   Bounds   1             -7       7                Points:          15
 PW_GRID|   Bounds   2             -7       7                Points:          15
 PW_GRID|   Bounds   3             -4       4                Points:           9
 PW_GRID| Volume element (a.u.^3)  0.2142         Volume (a.u.^3)       433.7834
 PW_GRID| Grid span                                                    FULLSPACE
 PW_GRID|   Distribution                         Average         Max         Min
 PW_GRID|   G-Vectors                               21.1         150           0
 PW_GRID|   G-Rays                                   1.4          10           0
 PW_GRID|   Real Space Points                       21.1          36           9

 PW_GRID| Information for grid number                                          4
 PW_GRID| Number of the reference grid                                         1
 PW_GRID| Grid distributed over                                    96 processors
 PW_GRID| Real space group dimensions                                     8   12
 PW_GRID| the grid is blocked:                                                NO
 PW_GRID| Cutoff [a.u.]                                                      3.7
 PW_GRID| spherical cutoff:                                                   NO
 PW_GRID|   Bounds   1             -4       3                Points:           8
 PW_GRID|   Bounds   2             -4       3                Points:           8
 PW_GRID|   Bounds   3             -3       2                Points:           6
 PW_GRID| Volume element (a.u.^3)   1.130         Volume (a.u.^3)       433.7834
 PW_GRID| Grid span                                                    FULLSPACE
 PW_GRID|   Distribution                         Average         Max         Min
 PW_GRID|   G-Vectors                                4.0          64           0
 PW_GRID|   G-Rays                                   0.5           8           0
 PW_GRID|   Real Space Points                        4.0           6           0

 PW_GRID| Information for grid number                                          5
 PW_GRID| Number of the reference grid                                         1
 PW_GRID| Grid distributed over                                    96 processors
 PW_GRID| Real space group dimensions                                     8   12
 PW_GRID| the grid is blocked:                                                NO
 PW_GRID| Cutoff [a.u.]                                                      1.2
 PW_GRID| spherical cutoff:                                                   NO
 PW_GRID|   Bounds   1             -3       2                Points:           6
 PW_GRID|   Bounds   2             -3       2                Points:           6
 PW_GRID|   Bounds   3             -2       1                Points:           4
 PW_GRID| Volume element (a.u.^3)   3.012         Volume (a.u.^3)       433.7834
 PW_GRID| Grid span                                                    FULLSPACE
 PW_GRID|   Distribution                         Average         Max         Min
 PW_GRID|   G-Vectors                                1.5          36           0
 PW_GRID|   G-Rays                                   0.2           6           0
 PW_GRID|   Real Space Points                        1.5           4           0

 POISSON| Solver                                                        PERIODIC
 POISSON| Periodicity                                                        XYZ

 RS_GRID| Information for grid number                                          1
 RS_GRID|   Bounds   1            -20      19                Points:          40
 RS_GRID|   Bounds   2            -20      19                Points:          40
 RS_GRID|   Bounds   3            -12      12                Points:          25
 RS_GRID| Real space fully replicated
 RS_GRID| Group size                                                           1

 RS_GRID| Information for grid number                                          2
 RS_GRID|   Bounds   1            -12      11                Points:          24
 RS_GRID|   Bounds   2            -12      11                Points:          24
 RS_GRID|   Bounds   3             -7       7                Points:          15
 RS_GRID| Real space fully replicated
 RS_GRID| Group size                                                           1

 RS_GRID| Information for grid number                                          3
 RS_GRID|   Bounds   1             -7       7                Points:          15
 RS_GRID|   Bounds   2             -7       7                Points:          15
 RS_GRID|   Bounds   3             -4       4                Points:           9
 RS_GRID| Real space fully replicated
 RS_GRID| Group size                                                           1

 RS_GRID| Information for grid number                                          4
 RS_GRID|   Bounds   1             -4       3                Points:           8
 RS_GRID|   Bounds   2             -4       3                Points:           8
 RS_GRID|   Bounds   3             -3       2                Points:           6
 RS_GRID| Real space fully replicated
 RS_GRID| Group size                                                           1

 RS_GRID| Information for grid number                                          5
 RS_GRID|   Bounds   1             -3       2                Points:           6
 RS_GRID|   Bounds   2             -3       2                Points:           6
 RS_GRID|   Bounds   3             -2       1                Points:           4
 RS_GRID| Real space fully replicated
 RS_GRID| Group size                                                           1

 KPOINTS| Number of kpoint groups                                              6
 KPOINTS| Size of each kpoint group                                           16
 KPOINTS| Number of kpoints per group                                          1

 Spin 1

 Number of electrons:                                                         24
 Number of occupied orbitals:                                                 24
 Number of molecular orbitals:                                                24

 Spin 2

 Number of electrons:                                                         24
 Number of occupied orbitals:                                                 24
 Number of molecular orbitals:                                                24

 Number of orbital functions:                                                104
 Number of independent orbital functions:                                    104

 Extrapolation method: initial_guess

 *** WARNING in qs_initial_guess.F:309 :: User requested to restart the    ***
 *** wavefunction from the file named: TiO2-bulk-bands-RESTART.kp. This    ***
 *** file does not exist. Please check the existence of the file or change ***
 *** properly the value of the keyword WFN_RESTART_FILE_NAME. Calculation  ***
 *** continues using ATOMIC GUESS.                                         ***


 Atomic guess: The first density matrix is obtained in terms of atomic orbitals
               and electronic configurations assigned to each atomic kind

 Guess for atomic kind: Ti

 Electronic structure
    Total number of core electrons                                         10.00
    Total number of valence electrons                                      12.00
    Total number of electrons                                              22.00
    Multiplicity                                                   not specified
    S   [  2.00  2.00] 2.00  2.00
    P   [  6.00] 6.00
    D      2.00


 *******************************************************************************
                  Iteration          Convergence                     Energy [au]
 *******************************************************************************
                          1         2.59099                     -56.573945749309
                          2        0.737518                     -57.461623245624
                          3        0.123244E-01                 -57.676656834797
                          4        0.338536E-02                 -57.676690535970
                          5        0.252157E-03                 -57.676697146183
                          6        0.162704E-05                 -57.676697160103
                          7        0.846593E-06                 -57.676697160104

 Energy components [Hartree]           Total Energy ::          -57.676697160104
                                        Band Energy ::          -13.440549799540
                                     Kinetic Energy ::           25.008468428381
                                   Potential Energy ::          -82.685165588485
                                      Virial (-V/T) ::            3.306286661467
                                        Core Energy ::          -97.155838374470
                                          XC Energy ::           -6.919409696495
                                     Coulomb Energy ::           46.398550910862
                       Total Pseudopotential Energy ::         -122.259340742080
                       Local Pseudopotential Energy ::         -118.928992669455
                    Nonlocal Pseudopotential Energy ::           -3.330348072625
                                        Confinement ::            0.950339392289

 Orbital energies  State     L     Occupation   Energy[a.u.]          Energy[eV]

                       1     0          2.000      -2.312566          -62.928123
                       2     0          2.000      -0.123060           -3.348633

                       1     1          6.000      -1.385567          -37.703193

                       1     2          2.000      -0.127948           -3.481643


 Total Electron Density at R=0:                                         0.004726

 Guess for atomic kind: O

 Electronic structure
    Total number of core electrons                                          2.00
    Total number of valence electrons                                       6.00
    Total number of electrons                                               8.00
    Multiplicity                                                   not specified
    S   [  2.00] 2.00
    P      4.00


 *******************************************************************************
                  Iteration          Convergence                     Energy [au]
 *******************************************************************************
                          1        0.708315                     -15.576645311500
                          2        0.608879                     -15.587933561584
                          3        0.102828E-01                 -15.656849565404
                          4        0.113889E-02                 -15.656866888140
                          5        0.434197E-03                 -15.656867072159
                          6        0.263771E-03                 -15.656867091904
                          7        0.478536E-06                 -15.656867103452

 Energy components [Hartree]           Total Energy ::          -15.656867103452
                                        Band Energy ::           -3.000198112285
                                     Kinetic Energy ::           11.759971203220
                                   Potential Energy ::          -27.416838306672
                                      Virial (-V/T) ::            2.331369510426
                                        Core Energy ::          -26.140716385623
                                          XC Energy ::           -3.154051012914
                                     Coulomb Energy ::           13.637900295084
                       Total Pseudopotential Energy ::          -37.935781716540
                       Local Pseudopotential Energy ::          -39.218907440693
                    Nonlocal Pseudopotential Energy ::            1.283125724153
                                        Confinement ::            0.350941276976

 Orbital energies  State     L     Occupation   Energy[a.u.]          Energy[eV]

                       1     0          2.000      -0.864471          -23.523463

                       1     1          4.000      -0.317814           -8.648154


 Total Electron Density at R=0:                                         0.000068

 Spin 1
 Re-scaling the density matrix to get the right number of electrons for spin 1
                  # Electrons              Trace(P)               Scaling factor
                           24                24.000                        1.000

 Spin 2
 Re-scaling the density matrix to get the right number of electrons for spin 2
                  # Electrons              Trace(P)               Scaling factor
                           24                24.000                        1.000


 SCF WAVEFUNCTION OPTIMIZATION

  Step     Update method      Time    Convergence         Total energy    Change
  ------------------------------------------------------------------------------
     1 NoMix/Diag. 0.10E+00    1.4     1.04553863      -181.2243892108 -1.81E+02
     2 Broy./Diag. 0.10E+00    2.3     0.03285145      -177.4084463552  3.82E+00
     3 Broy./Diag. 0.10E+00    2.3     0.13050515      -179.3907182113 -1.98E+00
     4 Broy./Diag. 0.10E+00    2.3     0.04049567      -180.8207761659 -1.43E+00
     5 Broy./Diag. 0.10E+00    2.3     0.00350471      -180.8346897339 -1.39E-02
     6 Broy./Diag. 0.10E+00    2.3     0.00603117      -180.9109522790 -7.63E-02
     7 Broy./Diag. 0.10E+00    2.3     0.00131856      -181.0648857718 -1.54E-01
     8 Broy./Diag. 0.10E+00    2.3     0.00348798      -180.9685015507  9.64E-02
     9 Broy./Diag. 0.10E+00    2.3     0.00042384      -180.8998182881  6.87E-02
    10 Broy./Diag. 0.10E+00    2.3     0.00019163      -180.8957294641  4.09E-03
    11 Broy./Diag. 0.10E+00    2.3     0.00025270      -180.9036725524 -7.94E-03
    12 Broy./Diag. 0.10E+00    2.3     0.00007877      -180.9088753187 -5.20E-03

  *** SCF run converged in    12 steps ***


  Electronic density on regular grids:        -47.9999551034        0.0000448966
  Core density on regular grids:               47.9999998635       -0.0000001365
  Total charge density on r-space grids:        0.0000447601
  Total charge density g-space grids:           0.0000447601

  Overlap energy of the core charge distribution:               0.00000000000004
  Self energy of the core charge distribution:               -379.90298629198736
  Core Hamiltonian energy:                                    101.16817662080685
  Hartree energy:                                             126.52226904888482
  Exchange-correlation energy:                                -28.69633469641394

  Total energy:                                              -180.90887531870959

  Integrated absolute spin density  :                               0.0000000000

 *** WARNING in qs_scf_post_gpw.F:1764 :: Spin contamination estimate not ***
 *** implemented for k-points.                                            ***


 !-----------------------------------------------------------------------------!
                     Mulliken Population Analysis

 #  Atom  Element  Kind  Atomic population (alpha,beta) Net charge  Spin moment
       1     Ti       1         5.370869     5.370869     1.258262    -0.000000
       2     Ti       1         5.371403     5.371403     1.257195     0.000000
       3     O        2         3.314638     3.314638    -0.629276     0.000000
       4     O        2         3.314638     3.314638    -0.629276     0.000000
       5     O        2         3.314226     3.314226    -0.628452     0.000000
       6     O        2         3.314226     3.314226    -0.628452     0.000000
 # Total charge and spin       24.000000    24.000000    -0.000000     0.000000

 !-----------------------------------------------------------------------------!

 !-----------------------------------------------------------------------------!
                           Hirshfeld Charges

  #Atom  Element  Kind  Ref Charge     Population       Spin moment  Net charge
      1       Ti     1      12.000    6.447   6.447           -0.000     -0.894
      2       Ti     1      12.000    6.447   6.447           -0.000     -0.894
      3       O      2       6.000    2.776   2.776            0.000      0.447
      4       O      2       6.000    2.776   2.776            0.000      0.447
      5       O      2       6.000    2.776   2.776            0.000      0.447
      6       O      2       6.000    2.776   2.776            0.000      0.447

  Total Charge                                                            0.000
 !-----------------------------------------------------------------------------!

 KPOINTS| Band Structure Calculation
 KPOINTS| Number of k-point sets                                               3
 KPOINTS| Number of added MOs/bands                                           10

 KPOINTS| Number of kpoint groups                                              1
 KPOINTS| Size of each kpoint group                                           96
 KPOINTS| Number of kpoints per group                                          7
 KPOINTS| Number of k-points in set    1                                       7
 KPOINTS| In units of b-vector [2pi/Bohr]
 KPOINTS| Special point     1       GAMMA     0.000000     0.000000     0.000000
 KPOINTS| Special point     2           X     0.000000     0.500000     0.000000
#  Point 1      Spin 1:     0.00000000     0.00000000     0.00000000       0.14285714
#   Band    Energy [eV]     Occupation
       1   -51.67214784     1.00000000
       2   -51.65838333     1.00000000
       3   -26.44597330     1.00000000
       4   -26.44424159     1.00000000
       5   -26.29930789     1.00000000
       6   -26.29805015     1.00000000
       7   -26.27860379     1.00000000
       8   -26.24868391     1.00000000
       9   -11.29147520     1.00000000
      10   -10.17323700     1.00000000
      11    -9.49256852     1.00000000
      12    -9.49139285     1.00000000
      13     1.09832960     1.00000000
      14     1.52311337     1.00000000
      15     2.07592272     1.00000000
      16     3.04313802     1.00000000
      17     3.05061856     1.00000000
      18     4.26434375     1.00000000
      19     4.26637642     1.00000000
      20     4.86753847     1.00000000
      21     6.08797822     1.00000000
      22     6.34046581     1.00000000
      23     6.34296021     1.00000000
      24     6.81338634     1.00000000
      25     8.49798628     0.00000000
      26     8.77834048     0.00000000
      27     9.03536830     0.00000000
      28     9.11166233     0.00000000
      29     9.12050109     0.00000000
      30    10.89048946     0.00000000
      31    11.18603877     0.00000000
      32    13.08792701     0.00000000
      33    13.09965470     0.00000000
      34    14.05301036     0.00000000
#  Point 1      Spin 2:     0.00000000     0.00000000     0.00000000       0.14285714
#   Band    Energy [eV]     Occupation
       1   -51.67214784     1.00000000
       2   -51.65838333     1.00000000
       3   -26.44597330     1.00000000
       4   -26.44424159     1.00000000
       5   -26.29930789     1.00000000
       6   -26.29805015     1.00000000
       7   -26.27860379     1.00000000
       8   -26.24868391     1.00000000
       9   -11.29147520     1.00000000
      10   -10.17323700     1.00000000
      11    -9.49256852     1.00000000
      12    -9.49139285     1.00000000
      13     1.09832960     1.00000000
      14     1.52311337     1.00000000
      15     2.07592272     1.00000000
      16     3.04313802     1.00000000
      17     3.05061856     1.00000000
      18     4.26434375     1.00000000
      19     4.26637642     1.00000000
      20     4.86753847     1.00000000
      21     6.08797822     1.00000000
      22     6.34046581     1.00000000
      23     6.34296021     1.00000000
      24     6.81338634     1.00000000
      25     8.49798628     0.00000000
      26     8.77834048     0.00000000
      27     9.03536830     0.00000000
      28     9.11166233     0.00000000
      29     9.12050109     0.00000000
      30    10.89048946     0.00000000
      31    11.18603877     0.00000000
      32    13.08792701     0.00000000
      33    13.09965470     0.00000000
      34    14.05301036     0.00000000
#  Point 2      Spin 1:     0.00000000     0.08333333     0.00000000       0.14285714
#   Band    Energy [eV]     Occupation
       1   -51.67194288     1.00000000
       2   -51.65855764     1.00000000
       3   -26.44408748     1.00000000
       4   -26.44230435     1.00000000
       5   -26.30156656     1.00000000
       6   -26.30025424     1.00000000
       7   -26.27814071     1.00000000
       8   -26.24914462     1.00000000
       9   -11.26839331     1.00000000
      10   -10.17456006     1.00000000
      11    -9.51522985     1.00000000
      12    -9.50030095     1.00000000
      13     1.14362182     1.00000000
      14     1.55055599     1.00000000
      15     2.11776748     1.00000000
      16     3.04665165     1.00000000
      17     3.05442670     1.00000000
      18     4.22145368     1.00000000
      19     4.25337519     1.00000000
      20     4.87033860     1.00000000
      21     6.04296259     1.00000000
      22     6.20818336     1.00000000
      23     6.27967792     1.00000000
      24     6.79445765     1.00000000
      25     8.54047164     0.00000000
      26     8.83913664     0.00000000
      27     9.08929490     0.00000000
      28     9.14209149     0.00000000
      29     9.15755073     0.00000000
      30    10.93791845     0.00000000
      31    11.15176248     0.00000000
      32    13.06723074     0.00000000
      33    13.07997434     0.00000000
      34    14.01112447     0.00000000
#  Point 2      Spin 2:     0.00000000     0.08333333     0.00000000       0.14285714
#   Band    Energy [eV]     Occupation
       1   -51.67194288     1.00000000
       2   -51.65855764     1.00000000
       3   -26.44408748     1.00000000
       4   -26.44230435     1.00000000
       5   -26.30156656     1.00000000
       6   -26.30025424     1.00000000
       7   -26.27814071     1.00000000
       8   -26.24914462     1.00000000
       9   -11.26839331     1.00000000
      10   -10.17456006     1.00000000
      11    -9.51522985     1.00000000
      12    -9.50030095     1.00000000
      13     1.14362182     1.00000000
      14     1.55055599     1.00000000
      15     2.11776748     1.00000000
      16     3.04665165     1.00000000
      17     3.05442670     1.00000000
      18     4.22145368     1.00000000
      19     4.25337519     1.00000000
      20     4.87033860     1.00000000
      21     6.04296259     1.00000000
      22     6.20818336     1.00000000
      23     6.27967792     1.00000000
      24     6.79445765     1.00000000
      25     8.54047164     0.00000000
      26     8.83913664     0.00000000
      27     9.08929490     0.00000000
      28     9.14209149     0.00000000
      29     9.15755073     0.00000000
      30    10.93791845     0.00000000
      31    11.15176248     0.00000000
      32    13.06723074     0.00000000
      33    13.07997434     0.00000000
      34    14.01112447     0.00000000
#  Point 3      Spin 1:     0.00000000     0.16666667     0.00000000       0.14285714
#   Band    Energy [eV]     Occupation
       1   -51.67134603     1.00000000
       2   -51.65909173     1.00000000
       3   -26.43857878     1.00000000
       4   -26.43657244     1.00000000
       5   -26.30813436     1.00000000
       6   -26.30656409     1.00000000
       7   -26.27679273     1.00000000
       8   -26.25048575     1.00000000
       9   -11.20037932     1.00000000
      10   -10.18331098     1.00000000
      11    -9.57694450     1.00000000
      12    -9.52432789     1.00000000
      13     1.27047221     1.00000000
      14     1.62834189     1.00000000
      15     2.24603688     1.00000000
      16     3.05538830     1.00000000
      17     3.06573781     1.00000000
      18     4.10236726     1.00000000
      19     4.20985254     1.00000000
      20     4.88205096     1.00000000
      21     5.86128312     1.00000000
      22     5.91981827     1.00000000
      23     6.13876812     1.00000000
      24     6.72317231     1.00000000
      25     8.65084419     0.00000000
      26     8.97791489     0.00000000
      27     9.21988141     0.00000000
      28     9.23367903     0.00000000
      29     9.26238813     0.00000000
      30    11.03269687     0.00000000
      31    11.10453651     0.00000000
      32    13.00699472     0.00000000
      33    13.02766789     0.00000000
      34    13.87623755     0.00000000
#  Point 3      Spin 2:     0.00000000     0.16666667     0.00000000       0.14285714
#   Band    Energy [eV]     Occupation
       1   -51.67134603     1.00000000
       2   -51.65909173     1.00000000
       3   -26.43857878     1.00000000
       4   -26.43657244     1.00000000
       5   -26.30813436     1.00000000
       6   -26.30656409     1.00000000
       7   -26.27679273     1.00000000
       8   -26.25048575     1.00000000
       9   -11.20037932     1.00000000
      10   -10.18331098     1.00000000
      11    -9.57694450     1.00000000
      12    -9.52432789     1.00000000
      13     1.27047221     1.00000000
      14     1.62834189     1.00000000
      15     2.24603688     1.00000000
      16     3.05538830     1.00000000
      17     3.06573781     1.00000000
      18     4.10236726     1.00000000
      19     4.20985254     1.00000000
      20     4.88205096     1.00000000
      21     5.86128312     1.00000000
      22     5.91981827     1.00000000
      23     6.13876812     1.00000000
      24     6.72317231     1.00000000
      25     8.65084419     0.00000000
      26     8.97791489     0.00000000
      27     9.21988141     0.00000000
      28     9.23367903     0.00000000
      29     9.26238813     0.00000000
      30    11.03269687     0.00000000
      31    11.10453651     0.00000000
      32    13.00699472     0.00000000
      33    13.02766789     0.00000000
      34    13.87623755     0.00000000
#  Point 4      Spin 1:     0.00000000     0.25000000     0.00000000       0.14285714
#   Band    Energy [eV]     Occupation
       1   -51.67041230     1.00000000
       2   -51.65997363     1.00000000
       3   -26.42998038     1.00000000
       4   -26.42751137     1.00000000
       5   -26.31824852     1.00000000
       6   -26.31616698     1.00000000
       7   -26.27468917     1.00000000
       8   -26.25257908     1.00000000
       9   -11.09119981     1.00000000
      10   -10.21540757     1.00000000
      11    -9.65266256     1.00000000
      12    -9.56109871     1.00000000
      13     1.45288973     1.00000000
      14     1.74162089     1.00000000
      15     2.46815042     1.00000000
      16     3.06723023     1.00000000
      17     3.08133939     1.00000000
      18     3.94114655     1.00000000
      19     4.11877807     1.00000000
      20     4.91131707     1.00000000
      21     5.38354342     1.00000000
      22     5.74625449     1.00000000
      23     6.00831967     1.00000000
      24     6.59840217     1.00000000
      25     8.79512807     0.00000000
      26     9.11416123     0.00000000
      27     9.33120700     0.00000000
      28     9.39826593     0.00000000
      29     9.43613841     0.00000000
      30    10.88376210     0.00000000
      31    11.34952113     0.00000000
      32    12.92182636     0.00000000
      33    12.95337804     0.00000000
      34    13.64753176     0.00000000
#  Point 4      Spin 2:     0.00000000     0.25000000     0.00000000       0.14285714
#   Band    Energy [eV]     Occupation
       1   -51.67041230     1.00000000
       2   -51.65997363     1.00000000
       3   -26.42998038     1.00000000
       4   -26.42751137     1.00000000
       5   -26.31824852     1.00000000
       6   -26.31616698     1.00000000
       7   -26.27468917     1.00000000
       8   -26.25257908     1.00000000
       9   -11.09119981     1.00000000
      10   -10.21540757     1.00000000
      11    -9.65266256     1.00000000
      12    -9.56109871     1.00000000
      13     1.45288973     1.00000000
      14     1.74162089     1.00000000
      15     2.46815042     1.00000000
      16     3.06723023     1.00000000
      17     3.08133939     1.00000000
      18     3.94114655     1.00000000
      19     4.11877807     1.00000000
      20     4.91131707     1.00000000
      21     5.38354342     1.00000000
      22     5.74625449     1.00000000
      23     6.00831967     1.00000000
      24     6.59840217     1.00000000
      25     8.79512807     0.00000000
      26     9.11416123     0.00000000
      27     9.33120700     0.00000000
      28     9.39826593     0.00000000
      29     9.43613841     0.00000000
      30    10.88376210     0.00000000
      31    11.34952113     0.00000000
      32    12.92182636     0.00000000
      33    12.95337804     0.00000000
      34    13.64753176     0.00000000
#  Point 5      Spin 1:     0.00000000     0.33333333     0.00000000       0.14285714
#   Band    Energy [eV]     Occupation
       1   -51.66924970     1.00000000
       2   -51.66110908     1.00000000
       3   -26.41944958     1.00000000
       4   -26.41636513     1.00000000
       5   -26.33036221     1.00000000
       6   -26.32766364     1.00000000
       7   -26.27207828     1.00000000
       8   -26.25517878     1.00000000
       9   -10.94740525     1.00000000
      10   -10.29476639     1.00000000
      11    -9.70657769     1.00000000
      12    -9.60612300     1.00000000
      13     1.65274704     1.00000000
      14     1.86143568     1.00000000
      15     2.79106124     1.00000000
      16     3.08048779     1.00000000
      17     3.09550574     1.00000000
      18     3.78438980     1.00000000
      19     3.97718304     1.00000000
      20     4.83752296     1.00000000
      21     4.96870913     1.00000000
      22     5.55217399     1.00000000
      23     5.95459631     1.00000000
      24     6.43810530     1.00000000
      25     8.94260879     0.00000000
      26     9.19603303     0.00000000
      27     9.45311906     0.00000000
      28     9.52339465     0.00000000
      29     9.67254704     0.00000000
      30    10.67943136     0.00000000
      31    11.69852050     0.00000000
      32    12.83663224     0.00000000
      33    12.87169326     0.00000000
      34    13.33645855     0.00000000
#  Point 5      Spin 2:     0.00000000     0.33333333     0.00000000       0.14285714
#   Band    Energy [eV]     Occupation
[...]
      12    -9.50821928     1.00000000
      13     1.23252941     1.00000000
      14     1.68748298     1.00000000
      15     2.25975378     1.00000000
      16     3.04115376     1.00000000
      17     3.07782987     1.00000000
      18     4.01132405     1.00000000
      19     4.29775891     1.00000000
      20     4.88506267     1.00000000
      21     5.82758150     1.00000000
      22     5.92110149     1.00000000
      23     6.12814862     1.00000000
      24     6.72761522     1.00000000
      25     8.55707436     0.00000000
      26     9.03946769     0.00000000
      27     9.11502361     0.00000000
      28     9.26470382     0.00000000
      29     9.36865852     0.00000000
      30    11.04370641     0.00000000
      31    11.09597859     0.00000000
      32    12.93059454     0.00000000
      33    13.10041780     0.00000000
      34    13.85164729     0.00000000
#  Point 8      Spin 1:     0.06250000     0.06250000     0.00000000       0.11111111
#   Band    Energy [eV]     Occupation
       1   -51.67191949     1.00000000
       2   -51.65857706     1.00000000
       3   -26.44463918     1.00000000
       4   -26.44137061     1.00000000
       5   -26.30320194     1.00000000
       6   -26.29906207     1.00000000
       7   -26.27808700     1.00000000
       8   -26.24919750     1.00000000
       9   -11.26571596     1.00000000
      10   -10.17479365     1.00000000
      11    -9.52318456     1.00000000
      12    -9.49579338     1.00000000
      13     1.14498831     1.00000000
      14     1.55758063     1.00000000
      15     2.12252493     1.00000000
      16     3.04815692     1.00000000
      17     3.05346558     1.00000000
      18     4.19663347     1.00000000
      19     4.27260617     1.00000000
      20     4.87063152     1.00000000
      21     6.03924023     1.00000000
      22     6.18476129     1.00000000
      23     6.28221262     1.00000000
      24     6.79419160     1.00000000
      25     8.52949595     0.00000000
      26     8.85583017     0.00000000
      27     9.09661089     0.00000000
      28     9.11254199     0.00000000
      29     9.19337470     0.00000000
      30    10.94344084     0.00000000
      31    11.14776285     0.00000000
      32    13.04322127     0.00000000
      33    13.09987354     0.00000000
      34    14.00530572     0.00000000
#  Point 8      Spin 2:     0.06250000     0.06250000     0.00000000       0.11111111
#   Band    Energy [eV]     Occupation
       1   -51.67191949     1.00000000
       2   -51.65857706     1.00000000
       3   -26.44463918     1.00000000
       4   -26.44137061     1.00000000
       5   -26.30320194     1.00000000
       6   -26.29906207     1.00000000
       7   -26.27808700     1.00000000
       8   -26.24919750     1.00000000
       9   -11.26571596     1.00000000
      10   -10.17479365     1.00000000
      11    -9.52318456     1.00000000
      12    -9.49579338     1.00000000
      13     1.14498831     1.00000000
      14     1.55758063     1.00000000
      15     2.12252493     1.00000000
      16     3.04815692     1.00000000
      17     3.05346558     1.00000000
      18     4.19663347     1.00000000
      19     4.27260617     1.00000000
      20     4.87063152     1.00000000
      21     6.03924023     1.00000000
      22     6.18476129     1.00000000
      23     6.28221262     1.00000000
      24     6.79419160     1.00000000
      25     8.52949595     0.00000000
      26     8.85583017     0.00000000
      27     9.09661089     0.00000000
      28     9.11254199     0.00000000
      29     9.19337470     0.00000000
      30    10.94344084     0.00000000
      31    11.14776285     0.00000000
      32    13.04322127     0.00000000
      33    13.09987354     0.00000000
      34    14.00530572     0.00000000
#  Point 9      Spin 1:     0.00000000     0.00000000     0.00000000       0.11111111
#   Band    Energy [eV]     Occupation
       1   -51.67214784     1.00000000
       2   -51.65838333     1.00000000
       3   -26.44597330     1.00000000
       4   -26.44424159     1.00000000
       5   -26.29930789     1.00000000
       6   -26.29805015     1.00000000
       7   -26.27860379     1.00000000
       8   -26.24868391     1.00000000
       9   -11.29147520     1.00000000
      10   -10.17323700     1.00000000
      11    -9.49256852     1.00000000
      12    -9.49139285     1.00000000
      13     1.09832960     1.00000000
      14     1.52311337     1.00000000
      15     2.07592272     1.00000000
      16     3.04313802     1.00000000
      17     3.05061856     1.00000000
      18     4.26434375     1.00000000
      19     4.26637642     1.00000000
      20     4.86753847     1.00000000
      21     6.08797822     1.00000000
      22     6.34046581     1.00000000
      23     6.34296021     1.00000000
      24     6.81338634     1.00000000
      25     8.49798628     0.00000000
      26     8.77834048     0.00000000
      27     9.03536830     0.00000000
      28     9.11166233     0.00000000
      29     9.12050109     0.00000000
      30    10.89048946     0.00000000
      31    11.18603877     0.00000000
      32    13.08792701     0.00000000
      33    13.09965470     0.00000000
      34    14.05301036     0.00000000
#  Point 9      Spin 2:     0.00000000     0.00000000     0.00000000       0.11111111
#   Band    Energy [eV]     Occupation
       1   -51.67214784     1.00000000
       2   -51.65838333     1.00000000
       3   -26.44597330     1.00000000
       4   -26.44424159     1.00000000
       5   -26.29930789     1.00000000
       6   -26.29805015     1.00000000
       7   -26.27860379     1.00000000
       8   -26.24868391     1.00000000
       9   -11.29147520     1.00000000
      10   -10.17323700     1.00000000
      11    -9.49256852     1.00000000
      12    -9.49139285     1.00000000
      13     1.09832960     1.00000000
      14     1.52311337     1.00000000
      15     2.07592272     1.00000000
      16     3.04313802     1.00000000
      17     3.05061856     1.00000000
      18     4.26434375     1.00000000
      19     4.26637642     1.00000000
      20     4.86753847     1.00000000
      21     6.08797822     1.00000000
      22     6.34046581     1.00000000
      23     6.34296021     1.00000000
      24     6.81338634     1.00000000
      25     8.49798628     0.00000000
      26     8.77834048     0.00000000
      27     9.03536830     0.00000000
      28     9.11166233     0.00000000
      29     9.12050109     0.00000000
      30    10.89048946     0.00000000
      31    11.18603877     0.00000000
      32    13.08792701     0.00000000
      33    13.09965470     0.00000000
      34    14.05301036     0.00000000
 KPOINTS| Time for k-point line                                            0.230

 ENERGY| Total FORCE_EVAL ( QS ) energy [a.u.]:             -180.908875318709590

 -------------------------------------------------------------------------------
 -                                                                             -
 -                                DBCSR STATISTICS                             -
 -                                                                             -
 -------------------------------------------------------------------------------
 COUNTER                                    TOTAL       BLAS       SMM       ACC
 flops inhomo. stacks                           0       0.0%      0.0%      0.0%
 flops total                         0.000000E+00       0.0%      0.0%      0.0%
 flops max/rank                      0.000000E+00       0.0%      0.0%      0.0%
 matmuls inhomo. stacks                         0       0.0%      0.0%      0.0%
 matmuls total                                  0       0.0%      0.0%      0.0%
 number of processed stacks                     0       0.0%      0.0%      0.0%
 average stack size                                     0.0       0.0       0.0
 marketing flops                     0.000000E+00
 -------------------------------------------------------------------------------
 -                                                                             -
 -                      DBCSR MESSAGE PASSING PERFORMANCE                      -
 -                                                                             -
 -------------------------------------------------------------------------------
 ROUTINE             CALLS      AVE VOLUME [Bytes]
 MP_Bcast                1                     12.
 MP_Allreduce        10677                      8.
 MP_Alltoall         20264                  35347.
 -------------------------------------------------------------------------------

 -------------------------------------------------------------------------------
 -                                                                             -
 -                                GRID STATISTICS                              -
 -                                                                             -
 -------------------------------------------------------------------------------
 LP    KERNEL             BACKEND                              COUNT     PERCENT
 4     collocate ortho    REF                                 172952      23.42%
 4     integrate ortho    REF                                 159648      21.61%
 5     collocate ortho    REF                                 151632      20.53%
 5     integrate ortho    REF                                 139968      18.95%
 6     collocate ortho    REF                                  59488       8.05%
 6     integrate ortho    REF                                  54912       7.43%
 0     collocate general  REF                                     12       0.00%
 0     integrate general  REF                                     12       0.00%
 -------------------------------------------------------------------------------

 MEMORY| Estimated peak process memory [MiB]                                 252

 -------------------------------------------------------------------------------
 ----                             MULTIGRID INFO                            ----
 -------------------------------------------------------------------------------
 count for grid        1:        2258090          cutoff [a.u.]          100.00
 count for grid        2:         670050          cutoff [a.u.]           33.33
 count for grid        3:         341310          cutoff [a.u.]           11.11
 count for grid        4:          89520          cutoff [a.u.]            3.70
 count for grid        5:           2400          cutoff [a.u.]            1.23
 total gridlevel count  :        3361370

 -------------------------------------------------------------------------------
 -                                                                             -
 -                         MESSAGE PASSING PERFORMANCE                         -
 -                                                                             -
 -------------------------------------------------------------------------------

 ROUTINE             CALLS      AVE VOLUME [Bytes]
 MP_Group                9
 MP_Bcast             6359                  57867.
 MP_Allreduce         5987                     27.
 MP_Sync               405
 MP_Alltoall           762
 MP_ISendRecv        24130                   1065.
 MP_Wait             29002
 MP_ISend             8074                    240.
 MP_IRecv            10066                    186.
 MP_Recv              4884                   7488.
 -------------------------------------------------------------------------------


 -------------------------------------------------------------------------------
 -                                                                             -
 -                           R E F E R E N C E S                               -
 -                                                                             -
 -------------------------------------------------------------------------------
 
 CP2K version 9.1, the CP2K developers group (2021).
 CP2K is freely available from https://www.cp2k.org/ .

 Kuehne,Thomas D.; Iannuzzi,Marcella; Del Ben,Mauro;
 Rybkin,Vladimir V.; Seewald,Patrick; Stein,Frederick; Laino,Teodoro;
 Khaliullin,Rustam Z.; Schuett,Ole; Schiffmann,Florian; Golze,Dorothea;
 Wilhelm,Jan; Chulkov,Sergey; Bani-Hashemian,Mohammad Hossein;
 Weber,Valery; Borstnik,Urban; Taillefumier,Mathieu;
 Jakobovits,Alice Shoshana; Lazzaro,Alfio; Pabst,Hans; Mueller,Tiziano;
 Schade,Robert; Guidon,Manuel; Andermatt,Samuel; Holmberg,Nico;
 Schenter,Gregory K.; Hehn,Anna; Bussy,Augustin; Belleflamme,Fabian;
 Tabacchi,Gloria; Gloess,Andreas; Lass,Michael; Bethune,Iain;
 Mundy,Christopher J.; Plessl,Christian; Watkins,Matt;
 VandeVondele,Joost; Krack,Matthias; Hutter,Juerg. 
 The Journal of Chemical Physics, 152 (19), (2020). 
 CP2K: An electronic structure and molecular dynamics software package -
 Quickstep: Efficient and accurate electronic structure calculations.
 https://doi.org/10.1063/5.0007045

 Togo, Atsushi; Tanaka, Isao. arXiv, 1808.01590 (2018). 
 Spglib : a software library for crystal symmetry search.
 https://doi.org/xxx

 Schuett, Ole; Messmer, Peter; Hutter, Juerg; VandeVondele, Joost. 
 Electronic Structure Calculations on Graphics Processing Units, John
 Wiley & Sons, Ltd, 173-190 (2016). 
 GPU-Accelerated Sparse Matrix-Matrix Multiplication for
 Linear Scaling Density Functional Theory.
 https://doi.org/10.1002/9781118670712.ch8

 Heinecke, A; Henry, G; Hutchinson, M; Pabst, H. 
 Proceedings of Intl. Supercomputing Conference, 981-991 (2016). 
 LIBXSMM: Accelerating Small Matrix Multiplications
 by Runtime Code Generation.
 https://doi.org/10.1109/SC.2016.83

 Borstnik, U; VandeVondele, J; Weber, V; Hutter, J. 
 PARALLEL COMPUTING, 40 (5-6), 47-58 (2014). 
 Sparse matrix multiplication: The distributed block-compressed sparse
 row library.
 https://doi.org/10.1016/j.parco.2014.03.012

 Hutter, J; Iannuzzi, M; Schiffmann, F; VandeVondele, J. 
 WIREs Comput Mol Sci., 4 (1), 15-25 (2014). 
 CP2K: atomistic simulations of condensed matter systems.
 https://doi.org/10.1002/wcms.1159

 VandeVondele, J; Hutter, J. 
 JOURNAL OF CHEMICAL PHYSICS, 127 (11), 114105 (2007). 
 Gaussian basis sets for accurate calculations on molecular systems in
 gas and condensed phases.
 https://doi.org/10.1063/1.2770708

 Krack, M. 
 THEORETICAL CHEMISTRY ACCOUNTS, 114 (1-3), 145-152 (2005). 
 Pseudopotentials for H to Kr optimized for gradient-corrected
 exchange-correlation functionals.
 https://doi.org/10.1007/s00214-005-0655-y

 VandeVondele, J; Krack, M; Mohamed, F; Parrinello, M; Chassaing, T;
 Hutter, J. COMPUTER PHYSICS COMMUNICATIONS, 167 (2), 103-128 (2005). 
 QUICKSTEP: Fast and accurate density functional calculations using a
 mixed Gaussian and plane waves approach.
 https://doi.org/10.1016/j.cpc.2004.12.014

 Frigo, M; Johnson, SG. 
 PROCEEDINGS OF THE IEEE, 93 (2), 216-231 (2005). 
 The design and implementation of FFTW3.
 https://doi.org/10.1109/JPROC.2004.840301

 Hartwigsen, C; Goedecker, S; Hutter, J. 
 PHYSICAL REVIEW B, 58 (7), 3641-3662 (1998). 
 Relativistic separable dual-space Gaussian pseudopotentials from H to Rn.
 https://doi.org/10.1103/PhysRevB.58.3641

 Lippert, G; Hutter, J; Parrinello, M. 
 MOLECULAR PHYSICS, 92 (3), 477-487 (1997). 
 A hybrid Gaussian and plane wave density functional scheme.
 https://doi.org/10.1080/002689797170220

 Perdew, JP; Burke, K; Ernzerhof, M. 
 PHYSICAL REVIEW LETTERS, 77 (18), 3865-3868 (1996). 
 Generalized gradient approximation made simple.
 https://doi.org/10.1103/PhysRevLett.77.3865

 Goedecker, S; Teter, M; Hutter, J. 
 PHYSICAL REVIEW B, 54 (3), 1703-1710 (1996). 
 Separable dual-space Gaussian pseudopotentials.
 https://doi.org/10.1103/PhysRevB.54.1703


 -------------------------------------------------------------------------------
 -                                                                             -
 -                                T I M I N G                                  -
 -                                                                             -
 -------------------------------------------------------------------------------
 SUBROUTINE                       CALLS  ASD         SELF TIME        TOTAL TIME
                                MAXIMUM       AVERAGE  MAXIMUM  AVERAGE  MAXIMUM
 CP2K                                 1  1.0    0.018    0.026   31.029   31.030
 qs_energies                          1  2.0    0.002    0.006   30.923   30.925
 scf_env_do_scf                       1  3.0    0.000    0.000   28.674   28.674
 scf_env_do_scf_inner_loop           12  4.0    0.004    0.005   28.674   28.674
 qs_ks_update_qs_env                 12  5.0    0.000    0.000    7.252   13.679
 rebuild_ks_matrix                   12  6.0    0.000    0.001    7.104   13.531
 qs_ks_build_kohn_sham_matrix        12  7.0    0.007    0.007    7.103   13.531
 rs_pw_transfer                     254  9.4    0.001    0.001   13.075   13.505
 sum_up_and_integrate                12  8.0    0.000    0.000    7.021   13.433
 integrate_v_rspace                  24  9.0    0.001    0.017    7.021   13.433
 mp_waitall_1                     29002 11.1   12.995   13.430   12.995   13.430
 rs_pw_transfer_RS2PW_100            28  8.9    0.007    0.008   12.931   13.361
 grid_integrate_task_list            24 10.0    0.453   13.293    0.453   13.293
 qs_rho_update_rho                   13  5.0    0.000    0.000   13.184   13.185
 calculate_rho_elec                  26  6.0    0.001    0.017   13.184   13.185
 density_rs2pw                       26  7.0    0.001    0.002   12.764   13.181
 grid_collocate_task_list            26  7.0    0.419   13.019    0.419   13.019
 do_general_diag_kp                  15  5.4    0.004    0.005    9.271    9.499
 qs_scf_new_mos_kp                   12  5.0    0.000    0.000    8.439    8.666
 dbcsr_desymmetrize_deep           1964  6.8    0.024    0.033    7.806    8.054
 mp_alltoall_i22                   3456  8.1    7.296    7.552    7.296    7.552
 pw_transfer                        503  9.5    0.054    0.057    6.586    6.815
 potential_pw2rs                     24 10.0    0.000    0.001    6.567    6.795
 fft_wrap_pw1pw2                    479 10.5    0.001    0.002    6.532    6.762
 fft_wrap_pw1pw2_100                279 11.6    0.002    0.002    6.486    6.716
 fft3d_pb                           279 12.6    0.005    0.005    6.484    6.713
 mp_alltoall_z22v                   758 14.5    6.483    6.713    6.483    6.713
 cube_transpose_2                   227 12.9    0.001    0.001    1.252    6.688
 cube_transpose_4                   123 13.7    0.001    0.001    5.214    6.675
 copy_dbcsr_to_fm                  1204  6.2    0.009    0.011    1.363    1.368
 dbcsr_complete_redistribute       1492  7.5    0.040    0.060    1.077    1.085
 init_scf_run                         1  3.0    0.000    0.000    1.046    1.047
 scf_env_initial_rho_setup            1  4.0    0.001    0.001    1.046    1.047
 cp_cfm_geeig                        58  5.2    0.001    0.001    0.685    0.688
 write_kpoints_restart               12  5.0    0.002    0.005    0.657    0.657
 mp_alltoall_d11v                 10368  8.7    0.651    0.656    0.651    0.656
 -------------------------------------------------------------------------------

 The number of warnings for this run is : 2
 
 -------------------------------------------------------------------------------
  **** **** ******  **  PROGRAM ENDED AT                 2022-01-04 07:50:49.124
 ***** ** ***  *** **   PROGRAM RAN ON                                   gcn2719
 **    ****   ******    PROGRAM RAN BY                                  nichdsas
 ***** **    ** ** **   PROGRAM PROCESS ID                                 64661
  **** **  *******  **  PROGRAM STOPPED IN /scratch/usr/nichdsas/cp2k-parser-tes
                                           ts/9.1/bands_spin_pol_medium
