64   
1    

1    
  0.0100000000000000   0.0000000000000000   0.0000000000000000
  -0.0018158988    0.0000000197    0.0000000197
   0.0000020512    0.0000000197    0.0000000197
   0.0000088412    0.0000000197    0.0000000197
  -0.0000032588    0.0000000197    0.0000000197
   0.0000088412    0.0000000197    0.0000000197
  -0.0000032588    0.0000000197    0.0000000197
  -0.0000751688    0.0000000197    0.0000000197
   0.0000032612    0.0000000197    0.0000000197
  -0.0000795488    0.0000148797    0.0000148797
   0.0000002712    0.0000009897    0.0000009897
  -0.0000792288    0.0000147697   -0.0000147903
   0.0000003312    0.0000010097   -0.0000010303
  -0.0000792288   -0.0000147903    0.0000147697
   0.0000003312   -0.0000010303    0.0000010097
  -0.0000795488   -0.0000149003   -0.0000149003
   0.0000002712   -0.0000010103   -0.0000010103
   0.0000252212   -0.0000147103    0.0000246197
   0.0000255012   -0.0000149203   -0.0000248603
   0.0000049312   -0.0000010103   -0.0000125403
   0.0000049412   -0.0000010003    0.0000124797
   0.0000252212    0.0000147297   -0.0000246303
   0.0000255012    0.0000149297    0.0000248497
   0.0000049312    0.0000010197    0.0000125197
   0.0000049412    0.0000010197   -0.0000125003
   0.0000252212    0.0000246197   -0.0000147103
   0.0000255012   -0.0000248603   -0.0000149203
   0.0000252212   -0.0000246303    0.0000147297
   0.0000255012    0.0000248497    0.0000149297
   0.0000049312   -0.0000125403   -0.0000010103
   0.0000049412    0.0000124797   -0.0000010003
   0.0000049312    0.0000125197    0.0000010197
   0.0000049412   -0.0000125003    0.0000010197
  -0.0000030088    0.0000048597    0.0000048597
   0.0000421812    0.0000019097    0.0000019097
   0.0000025012    0.0000018397    0.0000008597
  -0.0000075588    0.0000091197    0.0000049997
   0.0000025012    0.0000008597    0.0000018397
  -0.0000075588    0.0000049997    0.0000091197
  -0.0000016888    0.0000049697    0.0000049697
   0.0004621412    0.0002170697    0.0002170697
  -0.0000016788   -0.0000049803   -0.0000049803
   0.0004621612   -0.0002170803   -0.0002170803
   0.0000025112   -0.0000008703   -0.0000018503
  -0.0000075488   -0.0000050103   -0.0000091303
   0.0000025112   -0.0000018503   -0.0000008703
  -0.0000075488   -0.0000091303   -0.0000050103
  -0.0000029988   -0.0000048703   -0.0000048703
   0.0000422012   -0.0000019203   -0.0000019203
  -0.0000074788   -0.0000049703    0.0000092297
   0.0000026212   -0.0000009603    0.0000019997
   0.0004570513   -0.0002101303    0.0002101297
  -0.0000016588   -0.0000049903    0.0000049897
   0.0000420312   -0.0000019303    0.0000019297
  -0.0000029888   -0.0000048703    0.0000048797
  -0.0000074788   -0.0000092303    0.0000049797
   0.0000026212   -0.0000020003    0.0000009597
  -0.0000074788    0.0000092297   -0.0000049703
   0.0000026212    0.0000019997   -0.0000009603
   0.0000420312    0.0000019297   -0.0000019303
  -0.0000029888    0.0000048797   -0.0000048703
   0.0004570513    0.0002101297   -0.0002101303
  -0.0000016588    0.0000049897   -0.0000049903
  -0.0000074788    0.0000049797   -0.0000092303
   0.0000026212    0.0000009597   -0.0000020003
