 DBCSR| CPU Multiplication driver                                           XSMM (U)
 DBCSR| Multrec recursion limit                                              512 (U)
 DBCSR| Multiplication stack size                                           1000 (D)
 DBCSR| Maximum elements for images                                    UNLIMITED (U)
 DBCSR| Multiplicative factor virtual images                                   1 (U)
 DBCSR| Use multiplication densification                                       T (D)
 DBCSR| Multiplication size stacks                                             3 (U)
 DBCSR| Use memory pool for CPU allocation                                     F (U)
 DBCSR| Number of 3D layers                                               SINGLE (U)
 DBCSR| Use MPI memory allocation                                              F (U)
 DBCSR| Use RMA algorithm                                                      F (U)
 DBCSR| Use Communication thread                                               T (U)
 DBCSR| Communication thread load                                             87 (D)
 DBCSR| MPI: My process id                                                     0
 DBCSR| MPI: Number of processes                                              96
 DBCSR| OMP: Current number of threads                                         1
 DBCSR| OMP: Max number of threads                                             1
 DBCSR| Split modifier for TAS multiplication algorithm                  1.0E+00 (U)


  **** **** ******  **  PROGRAM STARTED AT               2024-07-07 14:47:34.052
 ***** ** ***  *** **   PROGRAM STARTED ON                                 c0265
 **    ****   ******    PROGRAM STARTED BY                              nichdsas
 ***** **    ** ** **   PROGRAM PROCESS ID                                233159
  **** **  *******  **  PROGRAM STARTED IN /scratch-grete/usr/nichdsas/test_pars
                                           er/cp2k-2024.1/cell_opt_spgr_medium

 CP2K| version string:                                       CP2K version 2024.1
 CP2K| source code revision number:                                             
 CP2K| cp2kflags: omp libint fftw3 libxc elpa parallel scalapack xsmm spglib sir
 CP2K|            ius libvori libbqb
 CP2K| is freely available from                            https://www.cp2k.org/
 CP2K| Program compiled at                                   2024-05-28 17:35:28
 CP2K| Program compiled on                                                      
 CP2K| Program compiled for                                               x86_64
 CP2K| Data directory path    /sw/rev/24.05/sapphirerapids_opa_rocky8/linux-rock
 CP2K| Input file name                                                 aiida.inp

 GLOBAL| Force Environment number                                              1
 GLOBAL| Basis set file name                                        BASIS_MOLOPT
 GLOBAL| Potential file name                                      GTH_POTENTIALS
 GLOBAL| MM Potential file name                                     MM_POTENTIAL
 GLOBAL| Coordinate file name                                      __STD_INPUT__
 GLOBAL| Method name                                                        CP2K
 GLOBAL| Project name                                                      aiida
 GLOBAL| Run type                                                       CELL_OPT
 GLOBAL| FFT library                                                       FFTW3
 GLOBAL| Diagonalization library                                            ELPA
 GLOBAL| DGEMM library                                                      BLAS
 GLOBAL| Minimum number of eigenvectors for ELPA usage                        16
 GLOBAL| Orthonormality check for eigenvectors                          DISABLED
 GLOBAL| Matrix multiplication library                                 ScaLAPACK
 GLOBAL| All-to-all communication in single precision                          F
 GLOBAL| FFTs using library dependent lengths                                  F
 GLOBAL| Grid backend                                                       AUTO
 GLOBAL| Global print level                                               MEDIUM
 GLOBAL| MPI I/O enabled                                                       T
 GLOBAL| Total number of message passing processes                            96
 GLOBAL| Number of threads for this process                                    1
 GLOBAL| This output is from process                                           0
 GLOBAL| Stack size for threads created by OpenMP (OMP_STACKSIZE)        default
 GLOBAL| CPU model name                           Intel(R) Xeon(R) Platinum 8468
 GLOBAL| CPUID                                                              1003

 MEMORY| system memory details [Kb]
 MEMORY|                        rank 0           min           max       average
 MEMORY| MemTotal            527678176     527678176     527678176     527678176
 MEMORY| MemFree             513164312     513164312     513164312     513164312
 MEMORY| Buffers                 32764         32764         32764         32764
 MEMORY| Cached                2000300       2000300       2000300       2000300
 MEMORY| Slab                  1238968       1238968       1238968       1238968
 MEMORY| SReclaimable           201960        201960        201960        201960
 MEMORY| MemLikelyFree       515399336     515399336     515399336     515399336


 *** Fundamental physical constants (SI units) ***

 *** Literature: B. J. Mohr and B. N. Taylor,
 ***             CODATA recommended values of the fundamental physical
 ***             constants: 2006, Web Version 5.1
 ***             http://physics.nist.gov/constants

 Speed of light in vacuum [m/s]                             2.99792458000000E+08
 Magnetic constant or permeability of vacuum [N/A**2]       1.25663706143592E-06
 Electric constant or permittivity of vacuum [F/m]          8.85418781762039E-12
 Planck constant (h) [J*s]                                  6.62606896000000E-34
 Planck constant (h-bar) [J*s]                              1.05457162825177E-34
 Elementary charge [C]                                      1.60217648700000E-19
 Electron mass [kg]                                         9.10938215000000E-31
 Electron g factor [ ]                                     -2.00231930436220E+00
 Proton mass [kg]                                           1.67262163700000E-27
 Fine-structure constant                                    7.29735253760000E-03
 Rydberg constant [1/m]                                     1.09737315685270E+07
 Avogadro constant [1/mol]                                  6.02214179000000E+23
 Boltzmann constant [J/K]                                   1.38065040000000E-23
 Atomic mass unit [kg]                                      1.66053878200000E-27
 Bohr radius [m]                                            5.29177208590000E-11

 *** Conversion factors ***

 [u] -> [a.u.]                                              1.82288848426455E+03
 [Angstrom] -> [Bohr] = [a.u.]                              1.88972613288564E+00
 [a.u.] = [Bohr] -> [Angstrom]                              5.29177208590000E-01
 [a.u.] -> [s]                                              2.41888432650478E-17
 [a.u.] -> [fs]                                             2.41888432650478E-02
 [a.u.] -> [J]                                              4.35974393937059E-18
 [a.u.] -> [N]                                              8.23872205491840E-08
 [a.u.] -> [K]                                              3.15774647902944E+05
 [a.u.] -> [kJ/mol]                                         2.62549961709828E+03
 [a.u.] -> [kcal/mol]                                       6.27509468713739E+02
 [a.u.] -> [Pa]                                             2.94210107994716E+13
 [a.u.] -> [bar]                                            2.94210107994716E+08
 [a.u.] -> [atm]                                            2.90362800883016E+08
 [a.u.] -> [eV]                                             2.72113838565563E+01
 [a.u.] -> [Hz]                                             6.57968392072181E+15
 [a.u.] -> [1/cm] (wave numbers)                            2.19474631370540E+05
 [a.u./Bohr**2] -> [1/cm]                                   5.14048714338585E+03
 

 CELL_TOP| Volume [angstrom^3]:                                       204.400073
 CELL_TOP| Vector a [angstrom     0.000     4.675     4.675   |a| =     6.611987
 CELL_TOP| Vector b [angstrom     4.675     0.000     4.675   |b| =     6.611987
 CELL_TOP| Vector c [angstrom     4.675     4.675     0.000   |c| =     6.611987
 CELL_TOP| Angle (b,c), alpha [degree]:                                60.000000
 CELL_TOP| Angle (a,c), beta  [degree]:                                60.000000
 CELL_TOP| Angle (a,b), gamma [degree]:                                60.000000
 CELL_TOP| Numerically orthorhombic:                                          NO
 CELL_TOP| Periodicity                                                       XYZ

 GENERATE|  Preliminary Number of Bonds generated:                             0
 GENERATE|  Achieved consistency in connectivity generation.

 CELL| Volume [angstrom^3]:                                           204.400073
 CELL| Vector a [angstrom]:       0.000     4.675     4.675   |a| =     6.611987
 CELL| Vector b [angstrom]:       4.675     0.000     4.675   |b| =     6.611987
 CELL| Vector c [angstrom]:       4.675     4.675     0.000   |c| =     6.611987
 CELL| Angle (b,c), alpha [degree]:                                    60.000000
 CELL| Angle (a,c), beta  [degree]:                                    60.000000
 CELL| Angle (a,b), gamma [degree]:                                    60.000000
 CELL| Numerically orthorhombic:                                              NO
 CELL| Periodicity                                                           XYZ

 CELL_REF| Volume [angstrom^3]:                                       204.400073
 CELL_REF| Vector a [angstrom     0.000     4.675     4.675   |a| =     6.611987
 CELL_REF| Vector b [angstrom     4.675     0.000     4.675   |b| =     6.611987
 CELL_REF| Vector c [angstrom     4.675     4.675     0.000   |c| =     6.611987
 CELL_REF| Angle (b,c), alpha [degree]:                                60.000000
 CELL_REF| Angle (a,c), beta  [degree]:                                60.000000
 CELL_REF| Angle (a,b), gamma [degree]:                                60.000000
 CELL_REF| Numerically orthorhombic:                                          NO
 CELL_REF| Periodicity                                                       XYZ

 *******************************************************************************
                                    Kpoints
 *******************************************************************************
 BRILLOUIN| K-point scheme                                        Monkhorst-Pack
 BRILLOUIN| K-Point grid                                             4    4    4
 BRILLOUIN| Accuracy in Symmetry determination                      0.100000E-05
 BRILLOUIN| K-Point point group symmetrization                               OFF
 BRILLOUIN| Wavefunction type                                            COMPLEX
 BRILLOUIN| List of Kpoints [2 Pi/Bohr]                                       32
 BRILLOUIN| Number           Weight            X              Y              Z
 BRILLOUIN|     1           0.03125       -0.37500       -0.37500       -0.37500
 BRILLOUIN|     2           0.03125       -0.37500       -0.37500       -0.12500
 BRILLOUIN|     3           0.03125       -0.37500       -0.37500        0.12500
 BRILLOUIN|     4           0.03125       -0.37500       -0.37500        0.37500
 BRILLOUIN|     5           0.03125       -0.37500       -0.12500       -0.37500
 BRILLOUIN|     6           0.03125       -0.37500       -0.12500       -0.12500
 BRILLOUIN|     7           0.03125       -0.37500       -0.12500        0.12500
 BRILLOUIN|     8           0.03125       -0.37500       -0.12500        0.37500
 BRILLOUIN|     9           0.03125       -0.37500        0.12500       -0.37500
 BRILLOUIN|    10           0.03125       -0.37500        0.12500       -0.12500
 BRILLOUIN|    11           0.03125       -0.37500        0.12500        0.12500
 BRILLOUIN|    12           0.03125       -0.37500        0.12500        0.37500
 BRILLOUIN|    13           0.03125       -0.37500        0.37500       -0.37500
 BRILLOUIN|    14           0.03125       -0.37500        0.37500       -0.12500
 BRILLOUIN|    15           0.03125       -0.37500        0.37500        0.12500
 BRILLOUIN|    16           0.03125       -0.37500        0.37500        0.37500
 BRILLOUIN|    17           0.03125       -0.12500       -0.37500       -0.37500
 BRILLOUIN|    18           0.03125       -0.12500       -0.37500       -0.12500
 BRILLOUIN|    19           0.03125       -0.12500       -0.37500        0.12500
 BRILLOUIN|    20           0.03125       -0.12500       -0.37500        0.37500
 BRILLOUIN|    21           0.03125       -0.12500       -0.12500       -0.37500
 BRILLOUIN|    22           0.03125       -0.12500       -0.12500       -0.12500
 BRILLOUIN|    23           0.03125       -0.12500       -0.12500        0.12500
 BRILLOUIN|    24           0.03125       -0.12500       -0.12500        0.37500
 BRILLOUIN|    25           0.03125       -0.12500        0.12500       -0.37500
 BRILLOUIN|    26           0.03125       -0.12500        0.12500       -0.12500
 BRILLOUIN|    27           0.03125       -0.12500        0.12500        0.12500
 BRILLOUIN|    28           0.03125       -0.12500        0.12500        0.37500
 BRILLOUIN|    29           0.03125       -0.12500        0.37500       -0.37500
 BRILLOUIN|    30           0.03125       -0.12500        0.37500       -0.12500
 BRILLOUIN|    31           0.03125       -0.12500        0.37500        0.12500
 BRILLOUIN|    32           0.03125       -0.12500        0.37500        0.37500
 *******************************************************************************

 *******************************************************************************
 *******************************************************************************
 **                                                                           **
 **     #####                         ##              ##                      **
 **    ##   ##            ##          ##              ##                      **
 **   ##     ##                       ##            ######                    **
 **   ##     ##  ##   ##  ##   #####  ##  ##   ####   ##    #####    #####    **
 **   ##     ##  ##   ##  ##  ##      ## ##   ##      ##   ##   ##  ##   ##   **
 **   ##  ## ##  ##   ##  ##  ##      ####     ###    ##   ######   ######    **
 **    ##  ###   ##   ##  ##  ##      ## ##      ##   ##   ##       ##        **
 **     #######   #####   ##   #####  ##  ##  ####    ##    #####   ##        **
 **           ##                                                    ##        **
 **                                                                           **
 **                                                ... make the atoms dance   **
 **                                                                           **
 **            Copyright (C) by CP2K developers group (2000-2024)             **
 **                      J. Chem. Phys. 152, 194103 (2020)                    **
 **                                                                           **
 *******************************************************************************

 DFT| Spin restricted Kohn-Sham (RKS) calculation                            RKS
 DFT| Multiplicity                                                             1
 DFT| Number of spin states                                                    1
 DFT| Charge                                                                   0
 DFT| Self-interaction correction (SIC)                                       NO
 DFT| Cutoffs: density                                              1.000000E-10
 DFT|          gradient                                             1.000000E-10
 DFT|          tau                                                  1.000000E-10
 DFT|          cutoff_smoothing_range                               0.000000E+00
 DFT| XC density smoothing                                                  NONE
 DFT| XC derivatives                                                          PW

 FUNCTIONAL| PBE:
 FUNCTIONAL| J.P.Perdew, K.Burke, M.Ernzerhof, Phys. Rev. Letter, vol. 77, n 18,
 FUNCTIONAL|  pp. 3865-3868, (1996) {spin unpolarized}                          


 QS| Method:                                                                 GPW
 QS| Density plane wave grid type                        NON-SPHERICAL FULLSPACE
 QS| Number of grid levels:                                                    4
 QS| Density cutoff [a.u.]:                                                300.0
 QS| Multi grid cutoff [a.u.]: 1) grid level                               300.0
 QS|                           2) grid level                               100.0
 QS|                           3) grid level                                33.3
 QS|                           4) grid level                                11.1
 QS| Grid level progression factor:                                          3.0
 QS| Relative density cutoff [a.u.]:                                        50.0
 QS| Interaction thresholds: eps_pgf_orb:                                1.0E-06
 QS|                         eps_filter_matrix:                          0.0E+00
 QS|                         eps_core_charge:                            1.0E-14
 QS|                         eps_rho_gspace:                             1.0E-12
 QS|                         eps_rho_rspace:                             1.0E-12
 QS|                         eps_gvg_rspace:                             1.0E-06
 QS|                         eps_ppl:                                    1.0E-02
 QS|                         eps_ppnl:                                   1.0E-08


 ATOMIC KIND INFORMATION

  1. Atomic kind: Cs                                    Number of atoms:       3

     Orbital Basis Set                                        DZVP-MOLOPT-SR-GTH

       Number of orbital shell sets:                                           1
       Number of orbital shells:                                               6
       Number of primitive Cartesian functions:                                6
       Number of Cartesian basis functions:                                   15
       Number of spherical basis functions:                                   14
       Norm type:                                                              2

       Normalised Cartesian orbitals:

                        Set   Shell   Orbital            Exponent    Coefficient

                          1       1    2s                1.000866       0.374652
                                                         0.913482       0.447213
                                                         0.666654      -0.482233
                                                         0.332486      -0.299606
                                                         0.149837      -0.045594
                                                         0.026691       0.024754

                          1       2    3s                1.000866       0.063459
                                                         0.913482      -0.059302
                                                         0.666654       0.056266
                                                         0.332486      -0.135928
                                                         0.149837       0.012155
                                                         0.026691       0.050045

                          1       3    4s                1.000866       0.019138
                                                         0.913482       0.189431
                                                         0.666654      -0.298798
                                                         0.332486       0.818329
                                                         0.149837      -0.509541
                                                         0.026691       0.047786

                          1       4    3px               1.000866      -0.632251
                                                         0.913482      -0.025433
                                                         0.666654       0.528297
                                                         0.332486       0.148959
                                                         0.149837       0.056305
                                                         0.026691       0.000225
                          1       4    3py               1.000866      -0.632251
                                                         0.913482      -0.025433
                                                         0.666654       0.528297
                                                         0.332486       0.148959
                                                         0.149837       0.056305
                                                         0.026691       0.000225
                          1       4    3pz               1.000866      -0.632251
                                                         0.913482      -0.025433
                                                         0.666654       0.528297
                                                         0.332486       0.148959
                                                         0.149837       0.056305
                                                         0.026691       0.000225

                          1       5    4px               1.000866       0.003116
                                                         0.913482       0.100874
                                                         0.666654      -0.106148
                                                         0.332486      -0.012146
                                                         0.149837      -0.009508
                                                         0.026691       0.015912
                          1       5    4py               1.000866       0.003116
                                                         0.913482       0.100874
                                                         0.666654      -0.106148
                                                         0.332486      -0.012146
                                                         0.149837      -0.009508
                                                         0.026691       0.015912
                          1       5    4pz               1.000866       0.003116
                                                         0.913482       0.100874
                                                         0.666654      -0.106148
                                                         0.332486      -0.012146
                                                         0.149837      -0.009508
                                                         0.026691       0.015912

                          1       6    4dx2              1.000866       0.209582
                                                         0.913482       0.087006
                                                         0.666654      -0.167560
                                                         0.332486      -0.110462
                                                         0.149837      -0.034232
                                                         0.026691       0.000970
                          1       6    4dxy              1.000866       0.363006
                                                         0.913482       0.150699
                                                         0.666654      -0.290222
                                                         0.332486      -0.191325
                                                         0.149837      -0.059291
                                                         0.026691       0.001680
                          1       6    4dxz              1.000866       0.363006
                                                         0.913482       0.150699
                                                         0.666654      -0.290222
                                                         0.332486      -0.191325
                                                         0.149837      -0.059291
                                                         0.026691       0.001680
                          1       6    4dy2              1.000866       0.209582
                                                         0.913482       0.087006
                                                         0.666654      -0.167560
                                                         0.332486      -0.110462
                                                         0.149837      -0.034232
                                                         0.026691       0.000970
                          1       6    4dyz              1.000866       0.363006
                                                         0.913482       0.150699
                                                         0.666654      -0.290222
                                                         0.332486      -0.191325
                                                         0.149837      -0.059291
                                                         0.026691       0.001680
                          1       6    4dz2              1.000866       0.209582
                                                         0.913482       0.087006
                                                         0.666654      -0.167560
                                                         0.332486      -0.110462
                                                         0.149837      -0.034232
                                                         0.026691       0.000970

       Atomic covalent radius [Angstrom]:                                  2.350

       Atomic van der Waals radius [Angstrom]:                             3.430

     GTH Potential information for                                    GTH-PBE-q9

       Description:                       Goedecker-Teter-Hutter pseudopotential
                                           Goedecker et al., PRB 54, 1703 (1996)
                                          Hartwigsen et al., PRB 58, 3641 (1998)
                                                      Krack, TCA 114, 145 (2005)

       Gaussian exponent of the core charge distribution:               1.714678
       Electronic configuration (s p d ...):                               3   6

       Parameters of the local part of the GTH pseudopotential:

                          rloc        C1          C2          C3          C4
                        0.540000   33.313317   -2.921217

       Parameters of the non-local part of the GTH pseudopotential:

                   l      r(l)      h(i,j,l)

                   0    0.461896   -3.322927    2.455653
                                    2.455653   -3.170235
                   1    0.366359   -4.950764    0.840390
                                    0.840390   -0.994363
                   2    0.761502    0.198407
                   3    0.597015   -1.550567

  2. Atomic kind: Sb                                    Number of atoms:       1

     Orbital Basis Set                                        DZVP-MOLOPT-SR-GTH

       Number of orbital shell sets:                                           1
       Number of orbital shells:                                               5
       Number of primitive Cartesian functions:                                5
       Number of Cartesian basis functions:                                   14
       Number of spherical basis functions:                                   13
       Norm type:                                                              2

       Normalised Cartesian orbitals:

                        Set   Shell   Orbital            Exponent    Coefficient

                          1       1    2s                0.757214       0.472439
                                                         0.576116      -0.195451
                                                         0.244349      -0.180089
                                                         0.160329      -0.056377
                                                         0.073466      -0.020349

                          1       2    3s                0.757214       0.419797
                                                         0.576116      -0.258369
                                                         0.244349       0.034913
                                                         0.160329      -0.206463
                                                         0.073466       0.180979

                          1       3    3px               0.757214       0.585212
                                                         0.576116      -0.435805
                                                         0.244349      -0.071217
                                                         0.160329      -0.067942
                                                         0.073466      -0.010697
                          1       3    3py               0.757214       0.585212
                                                         0.576116      -0.435805
                                                         0.244349      -0.071217
                                                         0.160329      -0.067942
                                                         0.073466      -0.010697
                          1       3    3pz               0.757214       0.585212
                                                         0.576116      -0.435805
                                                         0.244349      -0.071217
                                                         0.160329      -0.067942
                                                         0.073466      -0.010697

                          1       4    4px               0.757214       0.522718
                                                         0.576116      -0.401089
                                                         0.244349      -0.035356
                                                         0.160329      -0.088006
                                                         0.073466       0.081886
                          1       4    4py               0.757214       0.522718
                                                         0.576116      -0.401089
                                                         0.244349      -0.035356
                                                         0.160329      -0.088006
                                                         0.073466       0.081886
                          1       4    4pz               0.757214       0.522718
                                                         0.576116      -0.401089
                                                         0.244349      -0.035356
                                                         0.160329      -0.088006
                                                         0.073466       0.081886

                          1       5    4dx2              0.757214       0.248869
                                                         0.576116      -0.171200
                                                         0.244349      -0.053206
                                                         0.160329      -0.042235
                                                         0.073466       0.001170
                          1       5    4dxy              0.757214       0.431054
                                                         0.576116      -0.296527
                                                         0.244349      -0.092155
                                                         0.160329      -0.073153
                                                         0.073466       0.002027
                          1       5    4dxz              0.757214       0.431054
                                                         0.576116      -0.296527
                                                         0.244349      -0.092155
                                                         0.160329      -0.073153
                                                         0.073466       0.002027
                          1       5    4dy2              0.757214       0.248869
                                                         0.576116      -0.171200
                                                         0.244349      -0.053206
                                                         0.160329      -0.042235
                                                         0.073466       0.001170
                          1       5    4dyz              0.757214       0.431054
                                                         0.576116      -0.296527
                                                         0.244349      -0.092155
                                                         0.160329      -0.073153
                                                         0.073466       0.002027
                          1       5    4dz2              0.757214       0.248869
                                                         0.576116      -0.171200
                                                         0.244349      -0.053206
                                                         0.160329      -0.042235
                                                         0.073466       0.001170

       Atomic covalent radius [Angstrom]:                                  1.400

       Atomic van der Waals radius [Angstrom]:                             2.060

     GTH Potential information for                                    GTH-PBE-q5

       Description:                       Goedecker-Teter-Hutter pseudopotential
                                           Goedecker et al., PRB 54, 1703 (1996)
                                          Hartwigsen et al., PRB 58, 3641 (1998)
                                                      Krack, TCA 114, 145 (2005)

       Gaussian exponent of the core charge distribution:               1.436369
       Electronic configuration (s p d ...):                               2   3

       Parameters of the local part of the GTH pseudopotential:

                          rloc        C1          C2          C3          C4
                        0.590000    7.928521

       Parameters of the non-local part of the GTH pseudopotential:

                   l      r(l)      h(i,j,l)

                   0    0.556136    1.430478    1.261426   -0.923234
                                    1.261426   -3.130133    2.383779
                                   -0.923234    2.383779   -1.892066
                   1    0.622755    0.561472    0.304845
                                    0.304845   -0.360698
                   2    0.889486    0.270869


 MOLECULE KIND INFORMATION


 All atoms are their own molecule, skipping detailed information


 TOTAL NUMBERS AND MAXIMUM NUMBERS

  Total number of            - Atomic kinds:                                   2
                             - Atoms:                                          4
                             - Shell sets:                                     4
                             - Shells:                                        23
                             - Primitive Cartesian functions:                 23
                             - Cartesian basis functions:                     59
                             - Spherical basis functions:                     55

  Maximum angular momentum of- Orbital basis functions:                        2
                             - Local part of the GTH pseudopotential:          2
                             - Non-local part of the GTH pseudopotential:      4


 MODULE QUICKSTEP: ATOMIC COORDINATES IN ANGSTROM

   Atom Kind Element         X             Y             Z       Z(eff)     Mass
      1    1 Cs   55      2.337691      2.337691      2.337691   9.0000 132.9055
      2    1 Cs   55      7.013072      7.013072      7.013072   9.0000 132.9055
      3    1 Cs   55      4.675381      4.675381      4.675381   9.0000 132.9055
      4    2 Sb   51      0.000000      0.000000      0.000000   5.0000 121.7600



 SCF PARAMETERS         Density guess:                                   RESTART
                        --------------------------------------------------------
                        max_scf:                                             150
                        max_scf_history:                                       0
                        max_diis:                                              4
                        --------------------------------------------------------
                        eps_scf:                                        1.00E-06
                        eps_scf_history:                                0.00E+00
                        eps_diis:                                       1.00E-01
                        eps_eigval:                                     1.00E-05
                        --------------------------------------------------------
                        level_shift [a.u.]:                             0.000000
                        --------------------------------------------------------
                        Mixing method:                            BROYDEN_MIXING
                                                charge density mixing in g-space
                        --------------------------------------------------------
                        No outer SCF

 PW_GRID| Information for grid number                                          1
 PW_GRID| Grid distributed over                                    96 processors
 PW_GRID| Real space group dimensions                                    96    1
 PW_GRID| the grid is blocked:                                                NO
 PW_GRID| Cutoff [a.u.]                                                    300.0
 PW_GRID| spherical cutoff:                                                   NO
 PW_GRID|   Bounds   1            -50      49                Points:         100
 PW_GRID|   Bounds   2            -50      49                Points:         100
 PW_GRID|   Bounds   3            -50      49                Points:         100
 PW_GRID| Volume element (a.u.^3)  0.1379E-02     Volume (a.u.^3)      1379.3601
 PW_GRID| Grid span                                                    FULLSPACE
 PW_GRID|   Distribution                         Average         Max         Min
 PW_GRID|   G-Vectors                            10416.7       10500       10400
 PW_GRID|   G-Rays                                 104.2         105         104
 PW_GRID|   Real Space Points                    10416.7       20000       10000

 PW_GRID| Information for grid number                                          2
 PW_GRID| Number of the reference grid                                         1
 PW_GRID| Grid distributed over                                    96 processors
 PW_GRID| Real space group dimensions                                     8   12
 PW_GRID| the grid is blocked:                                                NO
 PW_GRID| Cutoff [a.u.]                                                    100.0
 PW_GRID| spherical cutoff:                                                   NO
 PW_GRID|   Bounds   1            -30      29                Points:          60
 PW_GRID|   Bounds   2            -30      29                Points:          60
 PW_GRID|   Bounds   3            -30      29                Points:          60
 PW_GRID| Volume element (a.u.^3)  0.6386E-02     Volume (a.u.^3)      1379.3601
 PW_GRID| Grid span                                                    FULLSPACE
 PW_GRID|   Distribution                         Average         Max         Min
 PW_GRID|   G-Vectors                             2250.0        2280        2220
 PW_GRID|   G-Rays                                  37.5          38          37
 PW_GRID|   Real Space Points                     2250.0        2400        2100

 PW_GRID| Information for grid number                                          3
 PW_GRID| Number of the reference grid                                         1
 PW_GRID| Grid distributed over                                    96 processors
 PW_GRID| Real space group dimensions                                     8   12
 PW_GRID| the grid is blocked:                                                NO
 PW_GRID| Cutoff [a.u.]                                                     33.3
 PW_GRID| spherical cutoff:                                                   NO
 PW_GRID|   Bounds   1            -18      17                Points:          36
 PW_GRID|   Bounds   2            -18      17                Points:          36
 PW_GRID|   Bounds   3            -18      17                Points:          36
 PW_GRID| Volume element (a.u.^3)  0.2956E-01     Volume (a.u.^3)      1379.3601
 PW_GRID| Grid span                                                    FULLSPACE
 PW_GRID|   Distribution                         Average         Max         Min
 PW_GRID|   G-Vectors                              486.0         540         432
 PW_GRID|   G-Rays                                  13.5          15          12
 PW_GRID|   Real Space Points                      486.0         540         432

 PW_GRID| Information for grid number                                          4
 PW_GRID| Number of the reference grid                                         1
 PW_GRID| Grid distributed over                                    96 processors
 PW_GRID| Real space group dimensions                                     8   12
 PW_GRID| the grid is blocked:                                                NO
 PW_GRID| Cutoff [a.u.]                                                     11.1
 PW_GRID| spherical cutoff:                                                   NO
 PW_GRID|   Bounds   1            -10       9                Points:          20
 PW_GRID|   Bounds   2            -10       9                Points:          20
 PW_GRID|   Bounds   3            -10       9                Points:          20
 PW_GRID| Volume element (a.u.^3)  0.1724         Volume (a.u.^3)      1379.3601
 PW_GRID| Grid span                                                    FULLSPACE
 PW_GRID|   Distribution                         Average         Max         Min
 PW_GRID|   G-Vectors                               83.3         100          60
 PW_GRID|   G-Rays                                   4.2           5           3
 PW_GRID|   Real Space Points                       83.3         120          40

 POISSON| Solver                                                        PERIODIC
 POISSON| Periodicity                                                        XYZ

 RS_GRID| Information for grid number                                          1
 RS_GRID|   Bounds   1            -50      49                Points:         100
 RS_GRID|   Bounds   2            -50      49                Points:         100
 RS_GRID|   Bounds   3            -50      49                Points:         100
 RS_GRID| Real space fully replicated
 RS_GRID| Group size                                                           1

 RS_GRID| Information for grid number                                          2
 RS_GRID|   Bounds   1            -30      29                Points:          60
 RS_GRID|   Bounds   2            -30      29                Points:          60
 RS_GRID|   Bounds   3            -30      29                Points:          60
 RS_GRID| Real space fully replicated
 RS_GRID| Group size                                                           1

 RS_GRID| Information for grid number                                          3
 RS_GRID|   Bounds   1            -18      17                Points:          36
 RS_GRID|   Bounds   2            -18      17                Points:          36
 RS_GRID|   Bounds   3            -18      17                Points:          36
 RS_GRID| Real space fully replicated
 RS_GRID| Group size                                                           1

 RS_GRID| Information for grid number                                          4
 RS_GRID|   Bounds   1            -10       9                Points:          20
 RS_GRID|   Bounds   2            -10       9                Points:          20
 RS_GRID|   Bounds   3            -10       9                Points:          20
 RS_GRID| Real space fully replicated
 RS_GRID| Group size                                                           1

 CELL_OPT| Pressure tolerance [bar]:                                       400.0
 CELL_OPT| Keep angles between the cell vectors:                              NO
 CELL_OPT| Keep cell symmetry:                                                NO
 CELL_OPT| Constraint:                                                      NONE

 BFGS| Use rational function optimization for step estimation:                NO
 BFGS| Use model Hessian for initial guess:                                   NO
 BFGS| Restart Hessian:                                                       NO
 BFGS| Trust radius:                                                       0.472

 -------------------------------------------------------------------------------
 ----                   SPACE GROUP SYMMETRY INFORMATION                    ----
 -------------------------------------------------------------------------------
 SPGR| SPACE GROUP NUMBER:                                                   225
 SPGR| INTERNATIONAL SYMBOL:                                               Fm-3m
 SPGR| POINT GROUP SYMBOL:                                                  m-3m
 SPGR| SCHOENFLIES SYMBOL:                                                  Oh^5
 SPGR| NUMBER OF SYMMETRY OPERATIONS:                                         48
 SPGR| NUMBER OF UNIQUE ROTATIONS:                                            48
 SPGR| NUMBER OF REDUCED SYMMETRY OPERATIONS:                                 48
 SPGR| NUMBER OF PARTICLES AND SYMMETRIZED PARTICLES:                  4       4
 SPGR| NUMBER OF ATOMS AND SYMMETRIZED ATOMS:                          4       4
 SPGR| NUMBER OF CORES AND SYMMETRIZED CORES:                          0       0
 SPGR| NUMBER OF SHELLS AND SYMMETRIZED SHELLS:                        0       0

 *******************************************************************************
 ***                     STARTING   CELL   OPTIMIZATION                      ***
 ***                                   BFGS                                  ***
 *******************************************************************************

 CELL| Volume [angstrom^3]:                                           204.400073
 CELL| Vector a [angstrom]:       0.000     4.675     4.675   |a| =     6.611987
 CELL| Vector b [angstrom]:       4.675     0.000     4.675   |b| =     6.611987
 CELL| Vector c [angstrom]:       4.675     4.675     0.000   |c| =     6.611987
 CELL| Angle (b,c), alpha [degree]:                                    60.000000
 CELL| Angle (a,c), beta  [degree]:                                    60.000000
 CELL| Angle (a,b), gamma [degree]:                                    60.000000
 CELL| Numerically orthorhombic:                                              NO
 CELL| Periodicity                                                           XYZ

 Number of electrons:                                                         32
 Number of occupied orbitals:                                                 16
 Number of molecular orbitals:                                                16

 Number of orbital functions:                                                 55
 Number of independent orbital functions:                                     55

 Extrapolation method: initial_guess

 *** WARNING in qs_initial_guess.F:306 :: User requested to restart the    ***
 *** wavefunction from the file named: aiida-RESTART.kp. This file does    ***
 *** not exist. Please check the existence of the file or change properly  ***
 *** the value of the keyword WFN_RESTART_FILE_NAME. Calculation continues ***
 *** using ATOMIC GUESS.                                                   ***


 Atomic guess: The first density matrix is obtained in terms of atomic orbitals
               and electronic configurations assigned to each atomic kind

 Guess for atomic kind: Cs

 Electronic structure
    Total number of core electrons                                         46.00
    Total number of valence electrons                                       9.00
    Total number of electrons                                              55.00
    Multiplicity                                                   not specified
    S   [  2.00  2.00  2.00  2.00] 2.00  1.00
    P   [  6.00  6.00  6.00] 6.00
    D   [ 10.00 10.00]


 *******************************************************************************
                  Iteration          Convergence                     Energy [au]
 *******************************************************************************
                          1        0.217823                     -19.955577345183
                          2        0.458189E-01                 -19.991365249718
                          3        0.800284E-03                 -19.992243521365
                          4        0.308329E-05                 -19.992243799227
                          5        0.172284E-07                 -19.992243799230

 Energy components [Hartree]           Total Energy ::          -19.992243799230
                                        Band Energy ::           -4.905196256014
                                     Kinetic Energy ::            5.178742025475
                                   Potential Energy ::          -25.170985824705
                                      Virial (-V/T) ::            4.860444042373
                                        Core Energy ::          -32.972937773906
                                          XC Energy ::           -3.037331543174
                                     Coulomb Energy ::           16.018025517850
                       Total Pseudopotential Energy ::          -38.193813522810
                       Local Pseudopotential Energy ::          -37.110283622776
                    Nonlocal Pseudopotential Energy ::           -1.083529900034
                                        Confinement ::            0.421337234293

 Orbital energies  State     L     Occupation   Energy[a.u.]          Energy[eV]

                       1     0          2.000      -0.967551          -26.328405
                       2     0          1.000      -0.059150           -1.609558

                       1     1          6.000      -0.485157          -13.201802


 Total Electron Density at R=0:                                         0.001325

 Guess for atomic kind: Sb

 Electronic structure
    Total number of core electrons                                         46.00
    Total number of valence electrons                                       5.00
    Total number of electrons                                              51.00
    Multiplicity                                                   not specified
    S   [  2.00  2.00  2.00  2.00] 2.00
    P   [  6.00  6.00  6.00] 3.00
    D   [ 10.00 10.00]


 *******************************************************************************
                  Iteration          Convergence                     Energy [au]
 *******************************************************************************
                          1        0.272014                      -5.223435501485
                          2        0.945718E-01                  -5.279222032589
                          3        0.225198E-02                  -5.285564465693
                          4        0.710750E-03                  -5.285567545687
                          5        0.544717E-03                  -5.285567685991
                          6        0.457222E-03                  -5.285567744993
                          7        0.221781E-06                  -5.285567885680

 Energy components [Hartree]           Total Energy ::           -5.285567885680
                                        Band Energy ::           -1.336880454313
                                     Kinetic Energy ::            1.699117999014
                                   Potential Energy ::           -6.984685884694
                                      Virial (-V/T) ::            4.110771523077
                                        Core Energy ::           -8.371891644866
                                          XC Energy ::           -1.237175046042
                                     Coulomb Energy ::            4.323498805228
                       Total Pseudopotential Energy ::          -10.136919250820
                       Local Pseudopotential Energy ::          -10.283867020114
                    Nonlocal Pseudopotential Energy ::            0.146947769295
                                        Confinement ::            0.659096069395

 Orbital energies  State     L     Occupation   Energy[a.u.]          Energy[eV]

                       1     0          2.000      -0.442963          -12.053637

                       1     1          3.000      -0.150318           -4.090365


 Total Electron Density at R=0:                                         0.000346
 Re-scaling the density matrix to get the right number of electrons
                  # Electrons              Trace(P)               Scaling factor
                           32                32.000                        1.000


 SCF WAVEFUNCTION OPTIMIZATION

  Step     Update method      Time    Convergence         Total energy    Change
  ------------------------------------------------------------------------------
     1 NoMix/Diag. 0.30E+00    2.7     0.67503115       -66.3586419144 -6.64E+01
     2 Broy./Diag. 0.30E+00    4.3     0.17765654       -66.1736632765  1.85E-01
     3 Broy./Diag. 0.30E+00    4.3     0.29362479       -66.1121430132  6.15E-02
     4 Broy./Diag. 0.30E+00    4.3     0.10009223       -66.0395819046  7.26E-02
     5 Broy./Diag. 0.30E+00    4.3     0.07078327       -65.9773596372  6.22E-02
     6 Broy./Diag. 0.30E+00    4.3     0.00846688       -65.9800883863 -2.73E-03
     7 Broy./Diag. 0.30E+00    4.3     0.00549835       -65.9866979988 -6.61E-03
     8 Broy./Diag. 0.30E+00    4.3     0.00030646       -65.9877011517 -1.00E-03
     9 Broy./Diag. 0.30E+00    4.3     0.00025171       -65.9871550864  5.46E-04
    10 Broy./Diag. 0.30E+00    4.3     0.00000683       -65.9869750543  1.80E-04
    11 Broy./Diag. 0.30E+00    4.3     0.00001596       -65.9869738045  1.25E-06
    12 Broy./Diag. 0.30E+00    4.5     0.00000045       -65.9869757988 -1.99E-06

  *** SCF run converged in    12 steps ***


  Electronic density on regular grids:        -32.0000000000        0.0000000000
  Core density on regular grids:               31.9999999999       -0.0000000001
  Total charge density on r-space grids:       -0.0000000001
  Total charge density g-space grids:          -0.0000000001

  Overlap energy of the core charge distribution:               0.00000000000000
  Self energy of the core charge distribution:               -138.89582544120611
  Core Hamiltonian energy:                                     27.22263397573814
  Hartree energy:                                              56.70275319458608
  Exchange-correlation energy:                                -11.01653752791304

  Total energy:                                               -65.98697579879493

 !-----------------------------------------------------------------------------!
                     Mulliken Population Analysis

 #  Atom  Element  Kind  Atomic population                           Net charge
       1     Cs       1          8.977188                              0.022812
       2     Cs       1          8.977198                              0.022802
       3     Cs       1          7.934632                              1.065368
       4     Sb       2          6.110981                             -1.110981
 # Total charge                             32.000000                  0.000000

 !-----------------------------------------------------------------------------!

 !-----------------------------------------------------------------------------!
                           Hirshfeld Charges

  #Atom  Element  Kind  Ref Charge     Population                    Net charge
      1       Cs     1       9.000          9.429                        -0.429
      2       Cs     1       9.000          9.429                        -0.429
      3       Cs     1       9.000          9.025                        -0.025
      4       Sb     2       5.000          4.117                         0.883

  Total Charge                                                           -0.000
 !-----------------------------------------------------------------------------!

 ENERGY| Total FORCE_EVAL ( QS ) energy [a.u.]:              -65.986975113821501

 SPGR STRESS| Symmetrized stress tensor [GPa]
 SPGR STRESS|                        x                   y                   z
 SPGR STRESS|      x        1.72175321423E-01  -5.86913378339E-18  -2.10381619275E-20
 SPGR STRESS|      y       -5.86913378339E-18   1.72175321423E-01   5.78727095308E-18
 SPGR STRESS|      z       -2.10381619275E-20   5.78727095308E-18   1.72175321423E-01
 SPGR STRESS| 1/3 Trace                                             1.72175321423E-01
 SPGR STRESS| Determinant                                           5.10402399293E-03

 SPGR STRESS| Eigenvectors and eigenvalues of the symmetrized stress tensor [GPa]
 SPGR STRESS|                        1                   2                   3
 SPGR STRESS| Eigenvalues   1.72175321423E-01   1.72175321423E-01   1.72175321423E-01
 SPGR STRESS|      x           1.000000000000      0.000000000000      0.000000000000
 SPGR STRESS|      y           0.000000000000      1.000000000000      0.000000000000
 SPGR STRESS|      z           0.000000000000      0.000000000000      1.000000000000

 --------  Informations at step =     0 ------------
  Optimization Method        =                 BFGS
  Total Energy               =       -65.9869751138
  Internal Pressure [bar]    =      1721.7532142309
  Used time                  =               59.235
 ---------------------------------------------------

 --------------------------
 OPTIMIZATION STEP:      1
 --------------------------

 CELL| Volume [angstrom^3]:                                           204.429938
 CELL| Vector a [angstrom]:      -0.000     4.675     4.675   |a| =     6.611987
 CELL| Vector b [angstrom]:       4.676    -0.000     4.675   |b| =     6.612148
 CELL| Vector c [angstrom]:       4.676     4.676    -0.000   |c| =     6.612309
 CELL| Angle (b,c), alpha [degree]:                                    60.002416
 CELL| Angle (a,c), beta  [degree]:                                    60.003222
 CELL| Angle (a,b), gamma [degree]:                                    60.004028
 CELL| Numerically orthorhombic:                                              NO
 CELL| Periodicity                                                           XYZ

 -------------------------------------------------------------------------------
 ----                             MULTIGRID INFO                            ----
 -------------------------------------------------------------------------------
 count for grid        1:          13835          cutoff [a.u.]          300.00
 count for grid        2:         964732          cutoff [a.u.]          100.00
 count for grid        3:         374244          cutoff [a.u.]           33.33
 count for grid        4:         109398          cutoff [a.u.]           11.11
 total gridlevel count  :        1462209

 PW_GRID| Information for grid number                                          5
 PW_GRID| Grid distributed over                                    96 processors
 PW_GRID| Real space group dimensions                                    96    1
 PW_GRID| the grid is blocked:                                                NO
 PW_GRID| Cutoff [a.u.]                                                    300.0
 PW_GRID| spherical cutoff:                                                   NO
 PW_GRID|   Bounds   1            -50      49                Points:         100
 PW_GRID|   Bounds   2            -50      49                Points:         100
 PW_GRID|   Bounds   3            -50      49                Points:         100
 PW_GRID| Volume element (a.u.^3)  0.1380E-02     Volume (a.u.^3)      1379.5616
 PW_GRID| Grid span                                                    FULLSPACE
 PW_GRID|   Distribution                         Average         Max         Min
 PW_GRID|   G-Vectors                            10416.7       10500       10400
 PW_GRID|   G-Rays                                 104.2         105         104
 PW_GRID|   Real Space Points                    10416.7       20000       10000

 PW_GRID| Information for grid number                                          6
 PW_GRID| Number of the reference grid                                         5
 PW_GRID| Grid distributed over                                    96 processors
 PW_GRID| Real space group dimensions                                     8   12
 PW_GRID| the grid is blocked:                                                NO
 PW_GRID| Cutoff [a.u.]                                                    100.0
 PW_GRID| spherical cutoff:                                                   NO
 PW_GRID|   Bounds   1            -30      29                Points:          60
 PW_GRID|   Bounds   2            -30      29                Points:          60
 PW_GRID|   Bounds   3            -30      29                Points:          60
 PW_GRID| Volume element (a.u.^3)  0.6387E-02     Volume (a.u.^3)      1379.5616
 PW_GRID| Grid span                                                    FULLSPACE
 PW_GRID|   Distribution                         Average         Max         Min
 PW_GRID|   G-Vectors                             2250.0        2280        2220
 PW_GRID|   G-Rays                                  37.5          38          37
 PW_GRID|   Real Space Points                     2250.0        2400        2100

 PW_GRID| Information for grid number                                          7
 PW_GRID| Number of the reference grid                                         5
 PW_GRID| Grid distributed over                                    96 processors
 PW_GRID| Real space group dimensions                                     8   12
 PW_GRID| the grid is blocked:                                                NO
 PW_GRID| Cutoff [a.u.]                                                     33.3
 PW_GRID| spherical cutoff:                                                   NO
 PW_GRID|   Bounds   1            -18      17                Points:          36
 PW_GRID|   Bounds   2            -18      17                Points:          36
 PW_GRID|   Bounds   3            -18      17                Points:          36
 PW_GRID| Volume element (a.u.^3)  0.2957E-01     Volume (a.u.^3)      1379.5616
 PW_GRID| Grid span                                                    FULLSPACE
 PW_GRID|   Distribution                         Average         Max         Min
 PW_GRID|   G-Vectors                              486.0         540         432
 PW_GRID|   G-Rays                                  13.5          15          12
 PW_GRID|   Real Space Points                      486.0         540         432

 PW_GRID| Information for grid number                                          8
 PW_GRID| Number of the reference grid                                         5
 PW_GRID| Grid distributed over                                    96 processors
 PW_GRID| Real space group dimensions                                     8   12
 PW_GRID| the grid is blocked:                                                NO
 PW_GRID| Cutoff [a.u.]                                                     11.1
 PW_GRID| spherical cutoff:                                                   NO
 PW_GRID|   Bounds   1            -10       9                Points:          20
 PW_GRID|   Bounds   2            -10       9                Points:          20
 PW_GRID|   Bounds   3            -10       9                Points:          20
 PW_GRID| Volume element (a.u.^3)  0.1724         Volume (a.u.^3)      1379.5616
 PW_GRID| Grid span                                                    FULLSPACE
 PW_GRID|   Distribution                         Average         Max         Min
 PW_GRID|   G-Vectors                               83.3         100          60
 PW_GRID|   G-Rays                                   4.2           5           3
 PW_GRID|   Real Space Points                       83.3         120          40

 POISSON| Solver                                                        PERIODIC
 POISSON| Periodicity                                                        XYZ

 RS_GRID| Information for grid number                                          5
 RS_GRID|   Bounds   1            -50      49                Points:         100
 RS_GRID|   Bounds   2            -50      49                Points:         100
 RS_GRID|   Bounds   3            -50      49                Points:         100
 RS_GRID| Real space fully replicated
 RS_GRID| Group size                                                           1

 RS_GRID| Information for grid number                                          6
 RS_GRID|   Bounds   1            -30      29                Points:          60
 RS_GRID|   Bounds   2            -30      29                Points:          60
 RS_GRID|   Bounds   3            -30      29                Points:          60
 RS_GRID| Real space fully replicated
 RS_GRID| Group size                                                           1

 RS_GRID| Information for grid number                                          7
 RS_GRID|   Bounds   1            -18      17                Points:          36
 RS_GRID|   Bounds   2            -18      17                Points:          36
 RS_GRID|   Bounds   3            -18      17                Points:          36
 RS_GRID| Real space fully replicated
 RS_GRID| Group size                                                           1

 RS_GRID| Information for grid number                                          8
 RS_GRID|   Bounds   1            -10       9                Points:          20
 RS_GRID|   Bounds   2            -10       9                Points:          20
 RS_GRID|   Bounds   3            -10       9                Points:          20
 RS_GRID| Real space fully replicated
 RS_GRID| Group size                                                           1

 Number of electrons:                                                         32
 Number of occupied orbitals:                                                 16
 Number of molecular orbitals:                                                16

 Number of orbital functions:                                                 55
 Number of independent orbital functions:                                     55

 Extrapolation method: initial_guess


 SCF WAVEFUNCTION OPTIMIZATION

  Step     Update method      Time    Convergence         Total energy    Change
  ------------------------------------------------------------------------------
     1 Broy./Diag. 0.30E+00    2.6     0.00015897       -65.9869633588 -6.60E+01
     2 Broy./Diag. 0.30E+00    4.3     0.00007001       -65.9871564611 -1.93E-04
     3 Broy./Diag. 0.30E+00    4.3     0.00005959       -65.9870507428  1.06E-04
     4 Broy./Diag. 0.30E+00    4.3     0.00001621       -65.9869816926  6.91E-05
     5 Broy./Diag. 0.30E+00    4.3     0.00000053       -65.9869688502  1.28E-05

  *** SCF run converged in     5 steps ***


  Electronic density on regular grids:        -32.0000008478       -0.0000008478
  Core density on regular grids:               31.9999999999       -0.0000000001
  Total charge density on r-space grids:       -0.0000008479
  Total charge density g-space grids:          -0.0000008479

  Overlap energy of the core charge distribution:               0.00000000000000
  Self energy of the core charge distribution:               -138.89582544120611
  Core Hamiltonian energy:                                     27.22247066626622
  Hartree energy:                                              56.70284451237359
  Exchange-correlation energy:                                -11.01645858759124

  Total energy:                                               -65.98696885015755

 !-----------------------------------------------------------------------------!
                     Mulliken Population Analysis

 #  Atom  Element  Kind  Atomic population                           Net charge
       1     Cs       1          8.977202                              0.022798
       2     Cs       1          8.977212                              0.022788
       3     Cs       1          7.934809                              1.065191
       4     Sb       2          6.110778                             -1.110778
 # Total charge                             32.000000                  0.000000

 !-----------------------------------------------------------------------------!

 !-----------------------------------------------------------------------------!
                           Hirshfeld Charges

  #Atom  Element  Kind  Ref Charge     Population                    Net charge
      1       Cs     1       9.000          9.429                        -0.429
      2       Cs     1       9.000          9.429                        -0.429
      3       Cs     1       9.000          9.025                        -0.025
      4       Sb     2       5.000          4.117                         0.883

  Total Charge                                                           -0.000
 !-----------------------------------------------------------------------------!

 ENERGY| Total FORCE_EVAL ( QS ) energy [a.u.]:              -65.986976271517506

 SPGR STRESS| Symmetrized stress tensor [GPa]
 SPGR STRESS|                        x                   y                   z
 SPGR STRESS|      x        1.70688123990E-01  -4.15578357768E-06  -8.31187074519E-06
 SPGR STRESS|      y       -4.15578357768E-06   1.70679812119E-01  -1.24677555195E-05
 SPGR STRESS|      z       -8.31187074519E-06  -1.24677555195E-05   1.70671500046E-01
 SPGR STRESS| 1/3 Trace                                             1.70679812051E-01
 SPGR STRESS| Determinant                                           4.97217565963E-03

 SPGR STRESS| Eigenvectors and eigenvalues of the symmetrized stress tensor [GPa]
 SPGR STRESS|                        1                   2                   3
 SPGR STRESS| Eigenvalues   1.70659560285E-01   1.70688123821E-01   1.70691752048E-01
 SPGR STRESS|      x           0.306457822223     -0.408254917374      0.859890414901
 SPGR STRESS|      y           0.543840361927      0.816496580942      0.193832386485
 SPGR STRESS|      z           0.781230608680     -0.408241663419     -0.472247266071

 --------  Informations at step =     1 ------------
  Optimization Method        =                 BFGS
  Total Energy               =       -65.9869762715
  Internal Pressure [bar]    =      1706.7981205147
  Real energy change         =        -0.0000011577
  Predicted change in energy =        -0.0000005554
  Scaling factor             =         0.0000000000
  Step size                  =         0.0004302877
  Trust radius               =         0.4724315332
  Decrease in energy         =                  YES
  Used time                  =               28.837

  Convergence check :
  Max. step size             =         0.0004302877
  Conv. limit for step size  =         0.0100000000
  Convergence in step size   =                  YES
  RMS step size              =         0.0002484267
  Conv. limit for RMS step   =         0.0100000000
  Convergence in RMS step    =                  YES
  Max. gradient              =         0.0004263957
  Conv. limit for gradients  =         0.0100000000
  Conv. in gradients         =                  YES
  RMS gradient               =         0.0002461709
  Conv. limit for RMS grad.  =         0.0500000000
  Conv. in RMS gradients     =                  YES
  Pressure Deviation [bar]   =      1606.7981205147
  Pressure Tolerance [bar]   =       400.0000000000
  Conv. for  PRESSURE        =                   NO
 ---------------------------------------------------
 Estimated peak process memory after this step [MiB]                         434

 --------------------------
 OPTIMIZATION STEP:      2
 --------------------------

 CELL| Volume [angstrom^3]:                                           207.700661
 CELL| Vector a [angstrom]:      -0.025     4.675     4.675   |a| =     6.612035
 CELL| Vector b [angstrom]:       4.700    -0.025     4.675   |b| =     6.629790
 CELL| Vector c [angstrom]:       4.700     4.700    -0.025   |c| =     6.647497
 CELL| Angle (b,c), alpha [degree]:                                    60.264711
 CELL| Angle (a,c), beta  [degree]:                                    60.353735
 CELL| Angle (a,b), gamma [degree]:                                    60.442920
 CELL| Numerically orthorhombic:                                              NO
 CELL| Periodicity                                                           XYZ

 -------------------------------------------------------------------------------
 ----                             MULTIGRID INFO                            ----
 -------------------------------------------------------------------------------
 count for grid        1:          13835          cutoff [a.u.]          300.00
 count for grid        2:         964732          cutoff [a.u.]          100.00
 count for grid        3:         374244          cutoff [a.u.]           33.33
 count for grid        4:         109398          cutoff [a.u.]           11.11
 total gridlevel count  :        1462209

 PW_GRID| Information for grid number                                          9
 PW_GRID| Grid distributed over                                    96 processors
 PW_GRID| Real space group dimensions                                    96    1
 PW_GRID| the grid is blocked:                                                NO
 PW_GRID| Cutoff [a.u.]                                                    300.0
 PW_GRID| spherical cutoff:                                                   NO
 PW_GRID|   Bounds   1            -50      49                Points:         100
 PW_GRID|   Bounds   2            -50      49                Points:         100
 PW_GRID|   Bounds   3            -50      49                Points:         100
 PW_GRID| Volume element (a.u.^3)  0.1402E-02     Volume (a.u.^3)      1401.6336
 PW_GRID| Grid span                                                    FULLSPACE
 PW_GRID|   Distribution                         Average         Max         Min
 PW_GRID|   G-Vectors                            10416.7       10500       10400
 PW_GRID|   G-Rays                                 104.2         105         104
 PW_GRID|   Real Space Points                    10416.7       20000       10000

 PW_GRID| Information for grid number                                         10
 PW_GRID| Number of the reference grid                                         9
 PW_GRID| Grid distributed over                                    96 processors
 PW_GRID| Real space group dimensions                                     8   12
 PW_GRID| the grid is blocked:                                                NO
 PW_GRID| Cutoff [a.u.]                                                    100.0
 PW_GRID| spherical cutoff:                                                   NO
 PW_GRID|   Bounds   1            -30      29                Points:          60
 PW_GRID|   Bounds   2            -30      29                Points:          60
 PW_GRID|   Bounds   3            -30      29                Points:          60
 PW_GRID| Volume element (a.u.^3)  0.6489E-02     Volume (a.u.^3)      1401.6336
 PW_GRID| Grid span                                                    FULLSPACE
 PW_GRID|   Distribution                         Average         Max         Min
 PW_GRID|   G-Vectors                             2250.0        2280        2220
 PW_GRID|   G-Rays                                  37.5          38          37
 PW_GRID|   Real Space Points                     2250.0        2400        2100

 PW_GRID| Information for grid number                                         11
 PW_GRID| Number of the reference grid                                         9
 PW_GRID| Grid distributed over                                    96 processors
 PW_GRID| Real space group dimensions                                     8   12
 PW_GRID| the grid is blocked:                                                NO
 PW_GRID| Cutoff [a.u.]                                                     33.3
 PW_GRID| spherical cutoff:                                                   NO
 PW_GRID|   Bounds   1            -18      17                Points:          36
 PW_GRID|   Bounds   2            -18      17                Points:          36
 PW_GRID|   Bounds   3            -18      17                Points:          36
 PW_GRID| Volume element (a.u.^3)  0.3004E-01     Volume (a.u.^3)      1401.6336
 PW_GRID| Grid span                                                    FULLSPACE
 PW_GRID|   Distribution                         Average         Max         Min
 PW_GRID|   G-Vectors                              486.0         540         432
 PW_GRID|   G-Rays                                  13.5          15          12
 PW_GRID|   Real Space Points                      486.0         540         432

 PW_GRID| Information for grid number                                         12
 PW_GRID| Number of the reference grid                                         9
 PW_GRID| Grid distributed over                                    96 processors
 PW_GRID| Real space group dimensions                                     8   12
 PW_GRID| the grid is blocked:                                                NO
 PW_GRID| Cutoff [a.u.]                                                     11.1
 PW_GRID| spherical cutoff:                                                   NO
 PW_GRID|   Bounds   1            -10       9                Points:          20
 PW_GRID|   Bounds   2            -10       9                Points:          20
 PW_GRID|   Bounds   3            -10       9                Points:          20
 PW_GRID| Volume element (a.u.^3)  0.1752         Volume (a.u.^3)      1401.6336
 PW_GRID| Grid span                                                    FULLSPACE
 PW_GRID|   Distribution                         Average         Max         Min
[...]
 SPGR STRESS|      z       -5.61122245631E-05  -8.41282368194E-05   1.00897488793E-02
 SPGR STRESS| 1/3 Trace                                             1.01459649784E-02
 SPGR STRESS| Determinant                                           1.04428745072E-06

 SPGR STRESS| Eigenvectors and eigenvalues of the symmetrized stress tensor [GPa]
 SPGR STRESS|                        1                   2                   3
 SPGR STRESS| Eigenvalues   1.00092776817E-02   1.02019995424E-02   1.02266177112E-02
 SPGR STRESS|      x           0.306156991346     -0.408977437353      0.859654205123
 SPGR STRESS|      y           0.543444760333      0.816504229622      0.194906735329
 SPGR STRESS|      z           0.781623751633     -0.407502513791     -0.472235123786

 --------  Informations at step =     3 ------------
  Optimization Method        =                 BFGS
  Total Energy               =       -65.9870170949
  Internal Pressure [bar]    =       101.4596497844
  Real energy change         =         0.0000016174
  Predicted change in energy =        -0.0000000866
  Scaling factor             =         0.0000000000
  Step size                  =         0.0018173152
  Trust radius               =         0.4724315332
  Decrease in energy         =                   NO
  Used time                  =               62.174

  Convergence check :
  Max. step size             =         0.0018173152
  Conv. limit for step size  =         0.0100000000
  Convergence in step size   =                  YES
  RMS step size              =         0.0010490714
  Conv. limit for RMS step   =         0.0100000000
  Convergence in RMS step    =                  YES
  Max. gradient              =         0.0000007656
  Conv. limit for gradients  =         0.0100000000
  Conv. in gradients         =                  YES
  RMS gradient               =         0.0000003597
  Conv. limit for RMS grad.  =         0.0500000000
  Conv. in RMS gradients     =                  YES
  Pressure Deviation [bar]   =         1.4596497844
  Pressure Tolerance [bar]   =       400.0000000000
  Conv. for  PRESSURE        =                  YES
 ---------------------------------------------------
 Estimated peak process memory after this step [MiB]                         435

 *******************************************************************************
 ***                    GEOMETRY OPTIMIZATION COMPLETED                      ***
 *******************************************************************************

                    Reevaluating energy at the minimum

 CELL| Volume [angstrom^3]:                                           207.827689
 CELL| Vector a [angstrom]:      -0.026     4.675     4.675   |a| =     6.612039
 CELL| Vector b [angstrom]:       4.701    -0.026     4.675   |b| =     6.630475
 CELL| Vector c [angstrom]:       4.701     4.701    -0.026   |c| =     6.648861
 CELL| Angle (b,c), alpha [degree]:                                    60.274805
 CELL| Angle (a,c), beta  [degree]:                                    60.367256
 CELL| Angle (a,b), gamma [degree]:                                    60.459879
 CELL| Numerically orthorhombic:                                              NO
 CELL| Periodicity                                                           XYZ

 Number of electrons:                                                         32
 Number of occupied orbitals:                                                 16
 Number of molecular orbitals:                                                16

 Number of orbital functions:                                                 55
 Number of independent orbital functions:                                     55

 Extrapolation method: initial_guess


 SCF WAVEFUNCTION OPTIMIZATION

  Step     Update method      Time    Convergence         Total energy    Change
  ------------------------------------------------------------------------------
     1 Broy./Diag. 0.30E+00    2.6     0.00000213       -65.9870170949 -6.60E+01
     2 Broy./Diag. 0.30E+00    4.2     0.00000090       -65.9870174139 -3.19E-07

  *** SCF run converged in     2 steps ***


  Electronic density on regular grids:        -32.0000000000        0.0000000000
  Core density on regular grids:               31.9999999999       -0.0000000001
  Total charge density on r-space grids:       -0.0000000001
  Total charge density g-space grids:          -0.0000000001

  Overlap energy of the core charge distribution:               0.00000000000000
  Self energy of the core charge distribution:               -138.89582544120611
  Core Hamiltonian energy:                                     27.20416984979937
  Hartree energy:                                              56.71237257893580
  Exchange-correlation energy:                                -11.00773440146925

  Total energy:                                               -65.98701741394019

 !-----------------------------------------------------------------------------!
                     Mulliken Population Analysis

 #  Atom  Element  Kind  Atomic population                           Net charge
       1     Cs       1          8.978548                              0.021452
       2     Cs       1          8.978547                              0.021453
       3     Cs       1          7.954723                              1.045277
       4     Sb       2          6.088182                             -1.088182
 # Total charge                             32.000000                 -0.000000

 !-----------------------------------------------------------------------------!

 !-----------------------------------------------------------------------------!
                           Hirshfeld Charges

  #Atom  Element  Kind  Ref Charge     Population                    Net charge
      1       Cs     1       9.000          9.423                        -0.423
      2       Cs     1       9.000          9.423                        -0.423
      3       Cs     1       9.000          9.013                        -0.013
      4       Sb     2       5.000          4.141                         0.859

  Total Charge                                                           -0.000
 !-----------------------------------------------------------------------------!

 ENERGY| Total FORCE_EVAL ( QS ) energy [a.u.]:              -65.987017413940194

 -------------------------------------------------------------------------------
 -                                                                             -
 -                                DBCSR STATISTICS                             -
 -                                                                             -
 -------------------------------------------------------------------------------
 COUNTER                                    TOTAL       BLAS       SMM       ACC
 flops inhomo. stacks                           0       0.0%      0.0%      0.0%
 flops total                         0.000000E+00       0.0%      0.0%      0.0%
 flops max/rank                      0.000000E+00       0.0%      0.0%      0.0%
 matmuls inhomo. stacks                         0       0.0%      0.0%      0.0%
 matmuls total                                  0       0.0%      0.0%      0.0%
 number of processed stacks                     0       0.0%      0.0%      0.0%
 average stack size                                     0.0       0.0       0.0
 marketing flops                     0.000000E+00
 -------------------------------------------------------------------------------
 -                                                                             -
 -                      DBCSR MESSAGE PASSING PERFORMANCE                      -
 -                                                                             -
 -------------------------------------------------------------------------------
 ROUTINE             CALLS      AVE VOLUME [Bytes]
 MP_Bcast                1                     12.
 MP_Allreduce        43246                      8.
 MP_Alltoall        158256                  27531.
 -------------------------------------------------------------------------------

 -------------------------------------------------------------------------------
 -                                                                             -
 -                                DBM STATISTICS                               -
 -                                                                             -
 -------------------------------------------------------------------------------
    M  x    N  x    K                                          COUNT     PERCENT
 -------------------------------------------------------------------------------

 -------------------------------------------------------------------------------
 -                                                                             -
 -                                GRID STATISTICS                              -
 -                                                                             -
 -------------------------------------------------------------------------------
 LP    KERNEL             BACKEND                              COUNT     PERCENT
 4     collocate general  CPU                                 494792      50.50%
 4     integrate general  CPU                                 445313      45.45%
 7     integrate general  CPU                                  39604       4.04%
 0     collocate general  CPU                                     40       0.00%
 0     integrate general  CPU                                     20       0.00%
 3     integrate general  CPU                                     16       0.00%
 -------------------------------------------------------------------------------

 MEMORY| Estimated peak process memory [MiB]                                 435

 -------------------------------------------------------------------------------
 ----                             MULTIGRID INFO                            ----
 -------------------------------------------------------------------------------
 count for grid        1:          13846          cutoff [a.u.]          300.00
 count for grid        2:         968248          cutoff [a.u.]          100.00
 count for grid        3:         376776          cutoff [a.u.]           33.33
 count for grid        4:         113168          cutoff [a.u.]           11.11
 total gridlevel count  :        1472038

 -------------------------------------------------------------------------------
 -                                                                             -
 -                         MESSAGE PASSING PERFORMANCE                         -
 -                                                                             -
 -------------------------------------------------------------------------------

 ROUTINE             CALLS      AVE VOLUME [Bytes]
 MP_Group               17
 MP_Bcast            76641                   7903.
 MP_Allreduce        21207                     55.
 MP_Sync               217
 MP_Alltoall          1093
 MP_SendRecv         19950                  51543.
 MP_ISendRecv        19475                  51120.
 MP_Wait             55535
 MP_comm_split           5
 MP_ISend            39729                    173.
 MP_IRecv            65698                    102.
 -------------------------------------------------------------------------------


 -------------------------------------------------------------------------------
 -                                                                             -
 -                           R E F E R E N C E S                               -
 -                                                                             -
 -------------------------------------------------------------------------------
 
 CP2K version 2024.1, the CP2K developers group (2024).
 CP2K is freely available from https://www.cp2k.org/ .

 Kuehne,Thomas D.; Iannuzzi,Marcella; Del Ben,Mauro;
 Rybkin,Vladimir V.; Seewald,Patrick; Stein,Frederick; Laino,Teodoro;
 Khaliullin,Rustam Z.; Schuett,Ole; Schiffmann,Florian; Golze,Dorothea;
 Wilhelm,Jan; Chulkov,Sergey; Bani-Hashemian,Mohammad Hossein;
 Weber,Valery; Borstnik,Urban; Taillefumier,Mathieu;
 Jakobovits,Alice Shoshana; Lazzaro,Alfio; Pabst,Hans; Mueller,Tiziano;
 Schade,Robert; Guidon,Manuel; Andermatt,Samuel; Holmberg,Nico;
 Schenter,Gregory K.; Hehn,Anna; Bussy,Augustin; Belleflamme,Fabian;
 Tabacchi,Gloria; Gloess,Andreas; Lass,Michael; Bethune,Iain;
 Mundy,Christopher J.; Plessl,Christian; Watkins,Matt;
 VandeVondele,Joost; Krack,Matthias; Hutter,Juerg. 
 The Journal of Chemical Physics, 152 (19), (2020). 
 CP2K: An electronic structure and molecular dynamics software package -
 Quickstep: Efficient and accurate electronic structure calculations.
 https://doi.org/10.1063/5.0007045

 Togo, Atsushi; Tanaka, Isao. arXiv, 1808.01590 (2018). 
 Spglib : a software library for crystal symmetry search.
 https://doi.org/xxx

 Schuett, Ole; Messmer, Peter; Hutter, Juerg; VandeVondele, Joost. 
 Electronic Structure Calculations on Graphics Processing Units, John
 Wiley & Sons, Ltd, 173-190 (2016). 
 GPU-Accelerated Sparse Matrix-Matrix Multiplication for
 Linear Scaling Density Functional Theory.
 https://doi.org/10.1002/9781118670712.ch8

 Heinecke, A; Henry, G; Hutchinson, M; Pabst, H. 
 Proceedings of Intl. Supercomputing Conference, 981-991 (2016). 
 LIBXSMM: Accelerating Small Matrix Multiplications
 by Runtime Code Generation.
 https://doi.org/10.1109/SC.2016.83

 Borstnik, U; VandeVondele, J; Weber, V; Hutter, J. 
 PARALLEL COMPUTING, 40 (5-6), 47-58 (2014). 
 Sparse matrix multiplication: The distributed block-compressed sparse
 row library.
 https://doi.org/10.1016/j.parco.2014.03.012

 Hutter, J; Iannuzzi, M; Schiffmann, F; VandeVondele, J. 
 WIREs Comput Mol Sci., 4 (1), 15-25 (2014). 
 CP2K: atomistic simulations of condensed matter systems.
 https://doi.org/10.1002/wcms.1159

 Marek, A; Blum, V; Johanni, R; Havu, V; Lang, B; Auckenthaler, T;
 Heinecke, A; Bungartz, H; Lederer, H. 
 Journal of Physics: Condensed Matter, 26 (21), (2014). 
 The ELPA library: scalable parallel eigenvalue solutions for
 electronic structure
 theory and computational science.
 https://doi.org/10.1088/0953-8984/26/21/213201

 VandeVondele, J; Hutter, J. 
 JOURNAL OF CHEMICAL PHYSICS, 127 (11), 114105 (2007). 
 Gaussian basis sets for accurate calculations on molecular systems in
 gas and condensed phases.
 https://doi.org/10.1063/1.2770708

 Krack, M. 
 THEORETICAL CHEMISTRY ACCOUNTS, 114 (1-3), 145-152 (2005). 
 Pseudopotentials for H to Kr optimized for gradient-corrected
 exchange-correlation functionals.
 https://doi.org/10.1007/s00214-005-0655-y

 VandeVondele, J; Krack, M; Mohamed, F; Parrinello, M; Chassaing, T;
 Hutter, J. COMPUTER PHYSICS COMMUNICATIONS, 167 (2), 103-128 (2005). 
 QUICKSTEP: Fast and accurate density functional calculations using a
 mixed Gaussian and plane waves approach.
 https://doi.org/10.1016/j.cpc.2004.12.014

 Frigo, M; Johnson, SG. 
 PROCEEDINGS OF THE IEEE, 93 (2), 216-231 (2005). 
 The design and implementation of FFTW3.
 https://doi.org/10.1109/JPROC.2004.840301

 Hartwigsen, C; Goedecker, S; Hutter, J. 
 PHYSICAL REVIEW B, 58 (7), 3641-3662 (1998). 
 Relativistic separable dual-space Gaussian pseudopotentials from H to Rn.
 https://doi.org/10.1103/PhysRevB.58.3641

 Lippert, G; Hutter, J; Parrinello, M. 
 MOLECULAR PHYSICS, 92 (3), 477-487 (1997). 
 A hybrid Gaussian and plane wave density functional scheme.
 https://doi.org/10.1080/002689797170220

 Perdew, JP; Burke, K; Ernzerhof, M. 
 PHYSICAL REVIEW LETTERS, 77 (18), 3865-3868 (1996). 
 Generalized gradient approximation made simple.
 https://doi.org/10.1103/PhysRevLett.77.3865

 Goedecker, S; Teter, M; Hutter, J. 
 PHYSICAL REVIEW B, 54 (3), 1703-1710 (1996). 
 Separable dual-space Gaussian pseudopotentials.
 https://doi.org/10.1103/PhysRevB.54.1703


 -------------------------------------------------------------------------------
 -                                                                             -
 -                                T I M I N G                                  -
 -                                                                             -
 -------------------------------------------------------------------------------
 SUBROUTINE                       CALLS  ASD         SELF TIME        TOTAL TIME
                                MAXIMUM       AVERAGE  MAXIMUM  AVERAGE  MAXIMUM
 CP2K                                 1  1.0    0.043    0.053  224.055  224.055
 cp_cell_opt                          1  2.0    0.007    0.007  223.737  223.738
 geoopt_bfgs                          1  3.0    0.007    0.010  223.730  223.732
 cp_eval_at                           5  4.0    0.004    0.005  223.503  223.516
 qs_forces                            4  5.0    0.003    0.003  212.141  212.155
 qs_energies                          5  5.8    0.013    0.014  206.851  206.864
 scf_env_do_scf                       5  6.8    0.000    0.000  194.784  194.787
 scf_env_do_scf_inner_loop           45  8.0    0.015    0.016  194.784  194.787
 rebuild_ks_matrix                   49  9.7    0.000    0.000    5.266  114.492
 qs_ks_build_kohn_sham_matrix        49 10.7    0.031    0.031    5.266  114.492
 sum_up_and_integrate                49 11.7    0.000    0.001    4.307  113.515
 integrate_v_rspace                  49 12.7    0.002    0.035    4.305  113.512
 qs_scf_new_mos_kp                   45  9.0    0.002    0.002  109.704  112.333
 do_general_diag_kp                  45 10.0    0.023    0.024  109.703  112.331
 grid_integrate_task_list            49 13.7    3.010  112.204    3.010  112.204
 dbcsr_desymmetrize_deep          13727 11.4    0.126    0.157  103.459  106.202
 mp_alltoall_i22                  26530 12.6   99.644  102.419   99.644  102.419
 qs_ks_update_qs_env                 45  9.0    0.000    0.000    5.132  100.741
 transfer_rs2pw                     210 11.9    0.002    0.002   83.502   85.835
 transfer_rs2pw_300                  60 12.7    0.167    0.175   83.295   85.632
 mp_sendrecv_dv                   19950 13.9   83.274   85.603   83.274   85.603
 qs_rho_update_rho_low               50  8.9    0.000    0.000   85.135   85.137
 calculate_rho_elec                  50  9.9    0.005    0.092   85.135   85.137
 density_rs2pw                       50 10.9    0.002    0.002   82.471   84.743
 grid_collocate_task_list            50 10.9    2.643   83.826    2.643   83.826
 qs_ks_update_qs_env_forces           4  6.0    0.000    0.000    0.687   14.303
 mp_sum_dm                          256  6.8   13.671   14.053   13.671   14.053
 init_scf_run                         5  6.8    0.000    0.000    9.686    9.691
 scf_env_initial_rho_setup            5  7.8    0.000    0.000    9.686    9.691
 copy_dbcsr_to_fm                  7967 10.6    0.041    0.049    8.084    8.101
 dbcsr_complete_redistribute      12803 11.9    0.230    0.341    7.595    7.635
 mp_alltoall_d11v                 79590 13.1    4.745    4.768    4.745    4.768
 mp_alltoall_i11v                 52136 12.8    4.703    4.707    4.703    4.707
 -------------------------------------------------------------------------------

 The number of warnings for this run is : 1
 
 -------------------------------------------------------------------------------
  **** **** ******  **  PROGRAM ENDED AT                 2024-07-07 14:51:21.174
 ***** ** ***  *** **   PROGRAM RAN ON                                     c0265
 **    ****   ******    PROGRAM RAN BY                                  nichdsas
 ***** **    ** ** **   PROGRAM PROCESS ID                                233159
  **** **  *******  **  PROGRAM STOPPED IN /scratch-grete/usr/nichdsas/test_pars
                                           er/cp2k-2024.1/cell_opt_spgr_medium
