 DBCSR| CPU Multiplication driver                                           XSMM
 DBCSR| Multrec recursion limit                                              512
 DBCSR| Multiplication stack size                                           1000
 DBCSR| Maximum elements for images                                    UNLIMITED
 DBCSR| Multiplicative factor virtual images                                   1
 DBCSR| Use multiplication densification                                       T
 DBCSR| Multiplication size stacks                                             3
 DBCSR| Use memory pool for CPU allocation                                     F
 DBCSR| Number of 3D layers                                               SINGLE
 DBCSR| Use MPI memory allocation                                              F
 DBCSR| Use RMA algorithm                                                      F
 DBCSR| Use Communication thread                                               T
 DBCSR| Communication thread load                                             83
 DBCSR| MPI: My node id                                                        0
 DBCSR| MPI: Number of nodes                                                  36
 DBCSR| OMP: Current number of threads                                         2
 DBCSR| OMP: Max number of threads                                             2
 DBCSR| Split modifier for TAS multiplication algorithm                  1.0E+00


  **** **** ******  **  PROGRAM STARTED AT               2021-05-24 13:41:06.140
 ***** ** ***  *** **   PROGRAM STARTED ON                               mpcl001
 **    ****   ******    PROGRAM STARTED BY                              pubo1141
 ***** **    ** ** **   PROGRAM PROCESS ID                                 18620
  **** **  *******  **  PROGRAM STARTED IN /user/pubo1141/simulations/aiida_test
                                           s/cp2k_8.1/cell_opt_walltime_medium

 CP2K| version string:                                          CP2K version 8.1
 CP2K| source code revision number:                                  git:0b61f2f
 CP2K| cp2kflags: omp fftw3 libxc parallel mpi3 scalapack xsmm spglib mkl libvor
 CP2K|            i libbqb
 CP2K| is freely available from                            https://www.cp2k.org/
 CP2K| Program compiled at                         Sun May 23 21:49:02 CEST 2021
 CP2K| Program compiled on                                               hpcl002
 CP2K| Program compiled for                                        carl-mkl-impi
 CP2K| Data directory path            /user/pubo1141/software/cp2k/cp2k-8.1/data
 CP2K| Input file name                                                 aiida.inp
 
 GLOBAL| Force Environment number                                              1
 GLOBAL| Basis set file name                                        BASIS_MOLOPT
 GLOBAL| Potential file name                                      GTH_POTENTIALS
 GLOBAL| MM Potential file name                                     MM_POTENTIAL
 GLOBAL| Coordinate file name                                      __STD_INPUT__
 GLOBAL| Method name                                                        CP2K
 GLOBAL| Project name                                                      aiida
 GLOBAL| Preferred FFT library                                             FFTW3
 GLOBAL| Preferred diagonalization lib.                                       SL
 GLOBAL| Run type                                                       CELL_OPT
 GLOBAL| All-to-all communication in single precision                          F
 GLOBAL| FFTs using library dependent lengths                                  F
 GLOBAL| Global print level                                                  LOW
 GLOBAL| MPI I/O enabled                                                       T
 GLOBAL| Total number of message passing processes                            36
 GLOBAL| Number of threads for this process                                    2
 GLOBAL| This output is from process                                           0
 GLOBAL| CPU model name                Intel(R) Xeon(R) CPU E5-2650 v4 @ 2.20GHz
 GLOBAL| CPUID                                                              1002

 MEMORY| system memory details [Kb]
 MEMORY|                        rank 0           min           max       average
 MEMORY| MemTotal            131594208     131594208     131594208     131594208
 MEMORY| MemFree              87216708      70877344      87216708      80645986
 MEMORY| Buffers                230688        157944        261584        216738
 MEMORY| Cached               34046484      34046484      50468784      40280075
 MEMORY| Slab                  2458364       2067612       3051912       2525962
 MEMORY| SReclaimable          1449136        960132       1902440       1437236
 MEMORY| MemLikelyFree       122943016     122332440     122943016     122580036

 
 GENERATE|  Preliminary Number of Bonds generated:                             0
 GENERATE|  Achieved consistency in connectivity generation.

 *** WARNING in cryssym.F:169 :: Version of Symmetry Library SPGLIB not ***
 *** tested                                                             ***


 *******************************************************************************
 *******************************************************************************
 **                                                                           **
 **     #####                         ##              ##                      **
 **    ##   ##            ##          ##              ##                      **
 **   ##     ##                       ##            ######                    **
 **   ##     ##  ##   ##  ##   #####  ##  ##   ####   ##    #####    #####    **
 **   ##     ##  ##   ##  ##  ##      ## ##   ##      ##   ##   ##  ##   ##   **
 **   ##  ## ##  ##   ##  ##  ##      ####     ###    ##   ######   ######    **
 **    ##  ###   ##   ##  ##  ##      ## ##      ##   ##   ##       ##        **
 **     #######   #####   ##   #####  ##  ##  ####    ##    #####   ##        **
 **           ##                                                    ##        **
 **                                                                           **
 **                                                ... make the atoms dance   **
 **                                                                           **
 **            Copyright (C) by CP2K developers group (2000 - 2020)           **
 **                      J. Chem. Phys. 152, 194103 (2020)                    **
 **                                                                           **
 *******************************************************************************


 TOTAL NUMBERS AND MAXIMUM NUMBERS

  Total number of            - Atomic kinds:                                   2
                             - Atoms:                                          4
                             - Shell sets:                                     4
                             - Shells:                                        31
                             - Primitive Cartesian functions:                 23
                             - Cartesian basis functions:                     75
                             - Spherical basis functions:                     71

  Maximum angular momentum of- Orbital basis functions:                        2
                             - Local part of the GTH pseudopotential:          2
                             - Non-local part of the GTH pseudopotential:      4


 SCF PARAMETERS         Density guess:                                   RESTART
                        --------------------------------------------------------
                        max_scf:                                             150
                        max_scf_history:                                       0
                        max_diis:                                              4
                        --------------------------------------------------------
                        eps_scf:                                        1.00E-06
                        eps_scf_history:                                0.00E+00
                        eps_diis:                                       1.00E-01
                        eps_eigval:                                     1.00E-05
                        --------------------------------------------------------
                        level_shift [a.u.]:                                 0.00
                        --------------------------------------------------------
                        Mixing method:                            BROYDEN_MIXING
                                                charge density mixing in g-space
                        --------------------------------------------------------
                        No outer SCF
 
 KPOINTS| Number of kpoint groups                                              4
 KPOINTS| Size of each kpoint group                                            9
 KPOINTS| Number of kpoints per group                                         64

 CELL_OPT| Pressure tolerance [bar]:                                       100.0
 CELL_OPT| Keep angles between the cell vectors:                              NO
 CELL_OPT| Keep cell symmetry:                                                NO
 CELL_OPT| Constraint:                                                      NONE

 BFGS| Use rational function optimization for step estimation:                NO
 BFGS| Use model Hessian for initial guess:                                   NO
 BFGS| Restart Hessian:                                                       NO
 BFGS| Trust radius:                                                       0.472

 *******************************************************************************
 ***                     STARTING   CELL   OPTIMIZATION                      ***
 ***                                   BFGS                                  ***
 *******************************************************************************

 CELL| Volume [angstrom^3]:                                           204.400073
 CELL| Vector a [angstrom]:       6.612     0.000     0.000   |a| =     6.611987
 CELL| Vector b [angstrom]:       3.306     5.726     0.000   |b| =     6.611987
 CELL| Vector c [angstrom]:       3.306     1.909     5.399   |c| =     6.611987
 CELL| Angle (b,c), alpha [degree]:                                    60.000000
 CELL| Angle (a,c), beta  [degree]:                                    60.000000
 CELL| Angle (a,b), gamma [degree]:                                    60.000000
 CELL| Numerically orthorhombic:                                              NO

 Number of electrons:                                                         32
 Number of occupied orbitals:                                                 16
 Number of molecular orbitals:                                                16

 Number of orbital functions:                                                 71
 Number of independent orbital functions:                                     71

 Extrapolation method: initial_guess

 *** WARNING in qs_initial_guess.F:309 :: User requested to restart the    ***
 *** wavefunction from the file named: aiida-RESTART.kp. This file does    ***
 *** not exist. Please check the existence of the file or change properly  ***
 *** the value of the keyword WFN_RESTART_FILE_NAME. Calculation continues ***
 *** using ATOMIC GUESS.                                                   ***



 SCF WAVEFUNCTION OPTIMIZATION

  Step     Update method      Time    Convergence         Total energy    Change
  ------------------------------------------------------------------------------
     1 NoMix/Diag. 0.30E+00    2.4     1.03014243       -66.2882955973 -6.63E+01
     2 Broy./Diag. 0.30E+00    2.8     0.22312023       -66.2498445668  3.85E-02
     3 Broy./Diag. 0.30E+00    2.8     0.18321028       -66.1515377976  9.83E-02
     4 Broy./Diag. 0.30E+00    2.8     0.10663100       -66.0581678487  9.34E-02
     5 Broy./Diag. 0.30E+00    2.7     0.02666042       -65.9830093279  7.52E-02
     6 Broy./Diag. 0.30E+00    2.7     0.01144067       -65.9873044398 -4.30E-03
     7 Broy./Diag. 0.30E+00    2.7     0.00797073       -65.9968961116 -9.59E-03
     8 Broy./Diag. 0.30E+00    2.8     0.00064089       -65.9982180934 -1.32E-03
     9 Broy./Diag. 0.30E+00    2.8     0.00034240       -65.9974963194  7.22E-04
    10 Broy./Diag. 0.30E+00    2.9     0.00002481       -65.9971452018  3.51E-04
    11 Broy./Diag. 0.30E+00    2.7     0.00001336       -65.9971114008  3.38E-05
    12 Broy./Diag. 0.30E+00    2.7     0.00001029       -65.9971069196  4.48E-06
    13 Broy./Diag. 0.30E+00    2.7     0.00000061       -65.9971089273 -2.01E-06

  *** SCF run converged in    13 steps ***


  Electronic density on regular grids:        -32.0000000000       -0.0000000000
  Core density on regular grids:               31.9999999999       -0.0000000001
  Total charge density on r-space grids:       -0.0000000001
  Total charge density g-space grids:          -0.0000000001

  Overlap energy of the core charge distribution:               0.00000000000000
  Self energy of the core charge distribution:               -138.89582544120611
  Core Hamiltonian energy:                                     27.13906367388034
  Hartree energy:                                              56.77637414034771
  Exchange-correlation energy:                                -11.01672130030838

  Total energy:                                               -65.99710892728643

 ENERGY| Total FORCE_EVAL ( QS ) energy [a.u.]:              -65.997108423311374

 --------  Informations at step =     0 ------------
  Optimization Method        =                 BFGS
  Total Energy               =       -65.9971084233
  Internal Pressure [bar]    =      1632.6535318759
  Used time                  =               38.844
 ---------------------------------------------------

 --------------------------
 OPTIMIZATION STEP:      1
 --------------------------

 CELL| Volume [angstrom^3]:                                           204.448405
 CELL| Vector a [angstrom]:       6.612     0.000     0.000   |a| =     6.611925
 CELL| Vector b [angstrom]:       3.306     5.727     0.000   |b| =     6.612515
 CELL| Vector c [angstrom]:       3.306     1.908     5.399   |c| =     6.612515
 CELL| Angle (b,c), alpha [degree]:                                    60.006154
 CELL| Angle (a,c), beta  [degree]:                                    60.002639
 CELL| Angle (a,b), gamma [degree]:                                    60.002639
 CELL| Numerically orthorhombic:                                              NO

 Number of electrons:                                                         32
 Number of occupied orbitals:                                                 16
 Number of molecular orbitals:                                                16

 Number of orbital functions:                                                 71
 Number of independent orbital functions:                                     71

 Extrapolation method: initial_guess


 SCF WAVEFUNCTION OPTIMIZATION

  Step     Update method      Time    Convergence         Total energy    Change
  ------------------------------------------------------------------------------
     1 Broy./Diag. 0.30E+00    2.4     0.00112405       -65.9969750648 -6.60E+01
     2 Broy./Diag. 0.30E+00    2.7     0.00007063       -65.9973640269 -3.89E-04
     3 Broy./Diag. 0.30E+00    2.7     0.00006309       -65.9972438762  1.20E-04
     4 Broy./Diag. 0.30E+00    2.8     0.00002383       -65.9971775132  6.64E-05
     5 Broy./Diag. 0.30E+00    2.9     0.00000407       -65.9971695964  7.92E-06
     6 Broy./Diag. 0.30E+00    2.9     0.00000336       -65.9971748948 -5.30E-06
     7 Broy./Diag. 0.30E+00    2.7     0.00000122       -65.9971782520 -3.36E-06
     8 Broy./Diag. 0.30E+00    2.7     0.00000016       -65.9971789983 -7.46E-07

  *** SCF run converged in     8 steps ***


  Electronic density on regular grids:        -31.9999999640        0.0000000360
  Core density on regular grids:               31.9999999999       -0.0000000001
  Total charge density on r-space grids:        0.0000000359
  Total charge density g-space grids:           0.0000000359

  Overlap energy of the core charge distribution:               0.00000000000000
  Self energy of the core charge distribution:               -138.89582544120611
  Core Hamiltonian energy:                                     27.13864180270893
  Hartree energy:                                              56.77653152535552
  Exchange-correlation energy:                                -11.01652688518247

  Total energy:                                               -65.99717899832413

 ENERGY| Total FORCE_EVAL ( QS ) energy [a.u.]:              -65.997178367241332

 --------  Informations at step =     1 ------------
  Optimization Method        =                 BFGS
  Total Energy               =       -65.9971783672
  Internal Pressure [bar]    =      1579.0104904709
  Real energy change         =        -0.0000699439
  Predicted change in energy =        -0.0000353205
  Scaling factor             =         0.0000000000
  Step size                  =         0.0054370892
  Trust radius               =         0.4724315332
  Decrease in energy         =                  YES
  Used time                  =               25.320

  Convergence check :
  Max. step size             =         0.0054370892
  Conv. limit for step size  =         0.0030000000
  Convergence in step size   =                   NO
  RMS step size              =         0.0019810350
  Conv. limit for RMS step   =         0.0015000000
  Convergence in RMS step    =                   NO
  Max. gradient              =         0.0053297752
  Conv. limit for gradients  =         0.0000190000
  Conv. for gradients        =                   NO
  RMS gradient               =         0.0019436525
  Conv. limit for RMS grad.  =         0.0003000000
  Conv. for gradients        =                   NO
  Pressure Deviation [bar]   =      1611.8637757927
  Pressure Tolerance [bar]   =       100.0000000000
  Conv. for  PRESSURE        =                   NO
 ---------------------------------------------------

 --------------------------
 OPTIMIZATION STEP:      2
 --------------------------

 CELL| Volume [angstrom^3]:                                           206.938255
 CELL| Vector a [angstrom]:       6.609     0.000     0.000   |a| =     6.608572
 CELL| Vector b [angstrom]:       3.306     5.758     0.000   |b| =     6.639668
 CELL| Vector c [angstrom]:       3.306     1.893     5.438   |c| =     6.639726
 CELL| Angle (b,c), alpha [degree]:                                    60.321554
 CELL| Angle (a,c), beta  [degree]:                                    60.138179
 CELL| Angle (a,b), gamma [degree]:                                    60.137893
 CELL| Numerically orthorhombic:                                              NO

 Number of electrons:                                                         32
 Number of occupied orbitals:                                                 16
 Number of molecular orbitals:                                                16

 Number of orbital functions:                                                 71
 Number of independent orbital functions:                                     71

 Extrapolation method: initial_guess


 SCF WAVEFUNCTION OPTIMIZATION

  Step     Update method      Time    Convergence         Total energy    Change
  ------------------------------------------------------------------------------
     1 Broy./Diag. 0.30E+00    2.2     0.05881907       -65.9913038066 -6.60E+01
     2 Broy./Diag. 0.30E+00    2.7     0.00329610       -66.0069204175 -1.56E-02
     3 Broy./Diag. 0.30E+00    2.7     0.00300638       -66.0017678789  5.15E-03
     4 Broy./Diag. 0.30E+00    2.7     0.00104784       -65.9989886070  2.78E-03
     5 Broy./Diag. 0.30E+00    2.7     0.00020831       -65.9987050802  2.84E-04
     6 Broy./Diag. 0.30E+00    2.7     0.00014022       -65.9989224113 -2.17E-04
     7 Broy./Diag. 0.30E+00    2.7     0.00006501       -65.9990561918 -1.34E-04
     8 Broy./Diag. 0.30E+00    2.8     0.00000776       -65.9990840374 -2.78E-05
     9 Broy./Diag. 0.30E+00    2.7     0.00001180       -65.9990618334  2.22E-05
    10 Broy./Diag. 0.30E+00    2.7     0.00000086       -65.9990535295  8.30E-06

  *** SCF run converged in    10 steps ***


  Electronic density on regular grids:        -32.0000002191       -0.0000002191
  Core density on regular grids:               31.9999999999       -0.0000000001
  Total charge density on r-space grids:       -0.0000002191
  Total charge density g-space grids:          -0.0000002191

  Overlap energy of the core charge distribution:               0.00000000000000
  Self energy of the core charge distribution:               -138.89582544120611
  Core Hamiltonian energy:                                     27.12150079994344
  Hartree energy:                                              56.78335187009305
  Exchange-correlation energy:                                -11.00808075835460

  Total energy:                                               -65.99905352952423

 ENERGY| Total FORCE_EVAL ( QS ) energy [a.u.]:              -65.999056923878413

 --------  Informations at step =     2 ------------
  Optimization Method        =                 BFGS
  Total Energy               =       -65.9990569239
  Internal Pressure [bar]    =      -518.0283270305
  Real energy change         =        -0.0018785566
  Predicted change in energy =        -0.0018027089
  Scaling factor             =         0.0000000000
  Step size                  =         0.2825889291
  Trust radius               =         0.4724315332
  Decrease in energy         =                  YES
  Used time                  =               30.042

  Convergence check :
  Max. step size             =         0.2825889291
  Conv. limit for step size  =         0.0030000000
  Convergence in step size   =                   NO
  RMS step size              =         0.1030539082
  Conv. limit for RMS step   =         0.0015000000
  Convergence in RMS step    =                   NO
  Max. gradient              =         0.0011039558
  Conv. limit for gradients  =         0.0000190000
  Conv. for gradients        =                   NO
  RMS gradient               =         0.0004319831
  Conv. limit for RMS grad.  =         0.0003000000
  Conv. for gradients        =                   NO
  Pressure Deviation [bar]   =      -485.1750417087
  Pressure Tolerance [bar]   =       100.0000000000
  Conv. for  PRESSURE        =                   NO
 ---------------------------------------------------

 --------------------------
 OPTIMIZATION STEP:      3
 --------------------------

 CELL| Volume [angstrom^3]:                                           207.077312
 CELL| Vector a [angstrom]:       6.608     0.000     0.000   |a| =     6.608422
 CELL| Vector b [angstrom]:       3.306     5.760     0.000   |b| =     6.641164
 CELL| Vector c [angstrom]:       3.306     1.892     5.440   |c| =     6.641229
 CELL| Angle (b,c), alpha [degree]:                                    60.339032
 CELL| Angle (a,c), beta  [degree]:                                    60.145682
 CELL| Angle (a,b), gamma [degree]:                                    60.145362
 CELL| Numerically orthorhombic:                                              NO

 Number of electrons:                                                         32
 Number of occupied orbitals:                                                 16
 Number of molecular orbitals:                                                16

 Number of orbital functions:                                                 71
 Number of independent orbital functions:                                     71

 Extrapolation method: initial_guess


 SCF WAVEFUNCTION OPTIMIZATION

  Step     Update method      Time    Convergence         Total energy    Change
  ------------------------------------------------------------------------------
     1 Broy./Diag. 0.30E+00    2.2     0.00367057       -65.9987157575 -6.60E+01
     2 Broy./Diag. 0.30E+00    2.7     0.00020894       -65.9993842155 -6.68E-04
     3 Broy./Diag. 0.30E+00    2.7     0.00018299       -65.9991694455  2.15E-04
     4 Broy./Diag. 0.30E+00    2.7     0.00005366       -65.9990601597  1.09E-04
     5 Broy./Diag. 0.30E+00    2.8     0.00001276       -65.9990531248  7.03E-06
     6 Broy./Diag. 0.30E+00    2.7     0.00000874       -65.9990619196 -8.79E-06
     7 Broy./Diag. 0.30E+00    2.7     0.00000395       -65.9990671455 -5.23E-06
     8 Broy./Diag. 0.30E+00    2.8     0.00000054       -65.9990682292 -1.08E-06

  *** SCF run converged in     8 steps ***


  Electronic density on regular grids:        -31.9999999591        0.0000000409
  Core density on regular grids:               31.9999999999       -0.0000000001
  Total charge density on r-space grids:        0.0000000409
  Total charge density g-space grids:           0.0000000409

  Overlap energy of the core charge distribution:               0.00000000000000
  Self energy of the core charge distribution:               -138.89582544120611
  Core Hamiltonian energy:                                     27.12074957375775
  Hartree energy:                                              56.78368866979098
  Exchange-correlation energy:                                -11.00768103159129

  Total energy:                                               -65.99906822924868

 ENERGY| Total FORCE_EVAL ( QS ) energy [a.u.]:              -65.999067207141280

 --------  Informations at step =     3 ------------
  Optimization Method        =                 BFGS
  Total Energy               =       -65.9990672071
  Internal Pressure [bar]    =      -603.9518421377
  Real energy change         =        -0.0000102833
  Predicted change in energy =        -0.0000082835
  Scaling factor             =         0.0000000000
  Step size                  =         0.0174987705
  Trust radius               =         0.4724315332
  Decrease in energy         =                  YES
  Used time                  =               24.957

  Convergence check :
  Max. step size             =         0.0174987705
  Conv. limit for step size  =         0.0030000000
  Convergence in step size   =                   NO
  RMS step size              =         0.0065034263
  Conv. limit for RMS step   =         0.0015000000
  Convergence in RMS step    =                   NO
  Max. gradient              =         0.0011568838
  Conv. limit for gradients  =         0.0000190000
  Conv. for gradients        =                   NO
  RMS gradient               =         0.0004375419
  Conv. limit for RMS grad.  =         0.0003000000
  Conv. for gradients        =                   NO
  Pressure Deviation [bar]   =      -571.0985568159
  Pressure Tolerance [bar]   =       100.0000000000
  Conv. for  PRESSURE        =                   NO
 ---------------------------------------------------

 --------------------------
 OPTIMIZATION STEP:      4
 --------------------------

 CELL| Volume [angstrom^3]:                                           207.102582
 CELL| Vector a [angstrom]:       6.608     0.000     0.000   |a| =     6.608461
 CELL| Vector b [angstrom]:       3.306     5.760     0.000   |b| =     6.641408
 CELL| Vector c [angstrom]:       3.306     1.892     5.441   |c| =     6.641474
 CELL| Angle (b,c), alpha [degree]:                                    60.342137
 CELL| Angle (a,c), beta  [degree]:                                    60.146980
 CELL| Angle (a,b), gamma [degree]:                                    60.146652
 CELL| Numerically orthorhombic:                                              NO

 Number of electrons:                                                         32
 Number of occupied orbitals:                                                 16
 Number of molecular orbitals:                                                16

 Number of orbital functions:                                                 71
 Number of independent orbital functions:                                     71

 Extrapolation method: initial_guess


 SCF WAVEFUNCTION OPTIMIZATION

  Step     Update method      Time    Convergence         Total energy    Change
  ------------------------------------------------------------------------------
     1 Broy./Diag. 0.30E+00    2.2     0.00116208       -65.9989942030 -6.60E+01
     2 Broy./Diag. 0.30E+00    2.9     0.00005775       -65.9991890844 -1.95E-04
     3 Broy./Diag. 0.30E+00    2.7     0.00007842       -65.9991065765  8.25E-05
     4 Broy./Diag. 0.30E+00    2.7     0.00001612       -65.9990686262  3.80E-05
     5 Broy./Diag. 0.30E+00    2.7     0.00000739       -65.9990681571  4.69E-07
     6 Broy./Diag. 0.30E+00    2.7     0.00000441       -65.9990706081 -2.45E-06
     7 Broy./Diag. 0.30E+00    2.7     0.00000124       -65.9990721596 -1.55E-06
     8 Broy./Diag. 0.30E+00    2.7     0.00000021       -65.9990725349 -3.75E-07

  *** SCF run converged in     8 steps ***


  Electronic density on regular grids:        -31.9999999822        0.0000000178
  Core density on regular grids:               31.9999999999       -0.0000000001
  Total charge density on r-space grids:        0.0000000177
  Total charge density g-space grids:           0.0000000177

  Overlap energy of the core charge distribution:               0.00000000000000
  Self energy of the core charge distribution:               -138.89582544120611
  Core Hamiltonian energy:                                     27.12055145820494
  Hartree energy:                                              56.78378443298989
  Exchange-correlation energy:                                -11.00758298488820

  Total energy:                                               -65.99907253489948

 ENERGY| Total FORCE_EVAL ( QS ) energy [a.u.]:              -65.999072223161761

 --------  Informations at step =     4 ------------
  Optimization Method        =                 BFGS
  Total Energy               =       -65.9990722232
  Internal Pressure [bar]    =      -626.7992681493
  Real energy change         =        -0.0000050160
  Predicted change in energy =        -0.0000028237
  Scaling factor             =         0.0000000000
  Step size                  =         0.0055028802
  Trust radius               =         0.4724315332
  Decrease in energy         =                  YES
  Used time                  =               24.690

  Convergence check :
  Max. step size             =         0.0055028802
  Conv. limit for step size  =         0.0030000000
  Convergence in step size   =                   NO
  RMS step size              =         0.0022856310
  Conv. limit for RMS step   =         0.0015000000
  Convergence in RMS step    =                   NO
  Max. gradient              =         0.0011594280
  Conv. limit for gradients  =         0.0000190000
  Conv. for gradients        =                   NO
  RMS gradient               =         0.0004406670
  Conv. limit for RMS grad.  =         0.0003000000
  Conv. for gradients        =                   NO
  Pressure Deviation [bar]   =      -593.9459828276
  Pressure Tolerance [bar]   =       100.0000000000
  Conv. for  PRESSURE        =                   NO
 ---------------------------------------------------

 --------------------------
 OPTIMIZATION STEP:      5
 --------------------------

 CELL| Volume [angstrom^3]:                                           207.100950
 CELL| Vector a [angstrom]:       6.609     0.000     0.000   |a| =     6.608948
 CELL| Vector b [angstrom]:       3.306     5.760     0.000   |b| =     6.641182
 CELL| Vector c [angstrom]:       3.306     1.892     5.440   |c| =     6.641251
 CELL| Angle (b,c), alpha [degree]:                                    60.341415
 CELL| Angle (a,c), beta  [degree]:                                    60.146410
 CELL| Angle (a,b), gamma [degree]:                                    60.146066
 CELL| Numerically orthorhombic:                                              NO

 Number of electrons:                                                         32
 Number of occupied orbitals:                                                 16
 Number of molecular orbitals:                                                16

 Number of orbital functions:                                                 71
 Number of independent orbital functions:                                     71

 Extrapolation method: initial_guess


 SCF WAVEFUNCTION OPTIMIZATION

  Step     Update method      Time    Convergence         Total energy    Change
  ------------------------------------------------------------------------------
     1 Broy./Diag. 0.30E+00    2.4     0.00372031       -65.9990072216 -6.60E+01
     2 Broy./Diag. 0.30E+00    2.7     0.00033161       -65.9995274657 -5.20E-04
     3 Broy./Diag. 0.30E+00    2.7     0.00047953       -65.9992153729  3.12E-04
     4 Broy./Diag. 0.30E+00    2.8     0.00011283       -65.9990877820  1.28E-04
     5 Broy./Diag. 0.30E+00    2.7     0.00003008       -65.9990862571  1.52E-06
     6 Broy./Diag. 0.30E+00    2.7     0.00001075       -65.9990922553 -6.00E-06
     7 Broy./Diag. 0.30E+00    2.7     0.00000398       -65.9990965523 -4.30E-06
     8 Broy./Diag. 0.30E+00    2.7     0.00000084       -65.9990977210 -1.17E-06

  *** SCF run converged in     8 steps ***


  Electronic density on regular grids:        -31.9999999653        0.0000000347
  Core density on regular grids:               31.9999999999       -0.0000000001
  Total charge density on r-space grids:        0.0000000346
  Total charge density g-space grids:           0.0000000346

  Overlap energy of the core charge distribution:               0.00000000000000
  Self energy of the core charge distribution:               -138.89582544120611
  Core Hamiltonian energy:                                     27.12011817490558
  Hartree energy:                                              56.78401709144089
  Exchange-correlation energy:                                -11.00740754609071

  Total energy:                                               -65.99909772095035

 ENERGY| Total FORCE_EVAL ( QS ) energy [a.u.]:              -65.999096817981666

 --------  Informations at step =     5 ------------
  Optimization Method        =                 BFGS
  Total Energy               =       -65.9990968180
  Internal Pressure [bar]    =      -677.3777458144
  Real energy change         =        -0.0000245948
  Predicted change in energy =        -0.0000159196
  Scaling factor             =         0.0000000000
  Step size                  =         0.0178217902
  Trust radius               =         0.4724315332
  Decrease in energy         =                  YES
  Used time                  =               24.864

  Convergence check :
  Max. step size             =         0.0178217902
  Conv. limit for step size  =         0.0030000000
  Convergence in step size   =                   NO
  RMS step size              =         0.0085725405
  Conv. limit for RMS step   =         0.0015000000
  Convergence in RMS step    =                   NO
  Max. gradient              =         0.0011087682
  Conv. limit for gradients  =         0.0000190000
  Conv. for gradients        =                   NO
  RMS gradient               =         0.0004481276
  Conv. limit for RMS grad.  =         0.0003000000
  Conv. for gradients        =                   NO
  Pressure Deviation [bar]   =      -644.5244604926
  Pressure Tolerance [bar]   =       100.0000000000
  Conv. for  PRESSURE        =                   NO
 ---------------------------------------------------

 --------------------------
 OPTIMIZATION STEP:      6
 --------------------------

 CELL| Volume [angstrom^3]:                                           206.927299
 CELL| Vector a [angstrom]:       6.610     0.000     0.000   |a| =     6.610188
 CELL| Vector b [angstrom]:       3.306     5.757     0.000   |b| =     6.638863
 CELL| Vector c [angstrom]:       3.306     1.893     5.437   |c| =     6.638931
 CELL| Angle (b,c), alpha [degree]:                                    60.318455
 CELL| Angle (a,c), beta  [degree]:                                    60.135983
 CELL| Angle (a,b), gamma [degree]:                                    60.135648
 CELL| Numerically orthorhombic:                                              NO

 Number of electrons:                                                         32
 Number of occupied orbitals:                                                 16
 Number of molecular orbitals:                                                16

 Number of orbital functions:                                                 71
 Number of independent orbital functions:                                     71

 Extrapolation method: initial_guess


 SCF WAVEFUNCTION OPTIMIZATION

  Step     Update method      Time    Convergence         Total energy    Change
  ------------------------------------------------------------------------------
     1 Broy./Diag. 0.30E+00    2.2     0.00398451       -65.9994021965 -6.60E+01
     2 Broy./Diag. 0.30E+00    2.7     0.00063217       -65.9996106634 -2.08E-04
     3 Broy./Diag. 0.30E+00    2.8     0.00089137       -65.9993013732  3.09E-04
     4 Broy./Diag. 0.30E+00    2.7     0.00016687       -65.9991533248  1.48E-04

 *** SCF run terminated - exceeded requested execution time:     180.000 seconds.

 *** Execution time now:      180.552 seconds.

  Leaving inner SCF loop after reaching     4 steps.


  Electronic density on regular grids:        -32.0000054348       -0.0000054348
  Core density on regular grids:               31.9999999999       -0.0000000001
  Total charge density on r-space grids:       -0.0000054349
  Total charge density g-space grids:          -0.0000054349

  Overlap energy of the core charge distribution:               0.00000000000000
  Self energy of the core charge distribution:               -138.89582544120611
  Core Hamiltonian energy:                                     27.12015981386124
  Hartree energy:                                              56.78406060619695
  Exchange-correlation energy:                                -11.00754830370065

  Total energy:                                               -65.99915332484856

 *** WARNING in qs_scf.F:576 :: SCF run NOT converged ***


 ENERGY| Total FORCE_EVAL ( QS ) energy [a.u.]:              -65.999138097396937

 *** GEO run terminated - exceeded requested execution time:     180.000 seconds.

 *** Execution time now:      183.003 seconds.

 -------------------------------------------------------------------------------
 -                                                                             -
 -                                DBCSR STATISTICS                             -
 -                                                                             -
 -------------------------------------------------------------------------------
 COUNTER                                    TOTAL       BLAS       SMM       ACC
 flops inhomo. stacks                           0       0.0%      0.0%      0.0%
 flops total                         0.000000E+00       0.0%      0.0%      0.0%
 flops max/rank                      0.000000E+00       0.0%      0.0%      0.0%
 matmuls inhomo. stacks                         0       0.0%      0.0%      0.0%
 matmuls total                                  0       0.0%      0.0%      0.0%
 number of processed stacks                     0       0.0%      0.0%      0.0%
 average stack size                                     0.0       0.0       0.0
 marketing flops                     0.000000E+00
 -------------------------------------------------------------------------------
 -                                                                             -
 -                      DBCSR MESSAGE PASSING PERFORMANCE                      -
 -                                                                             -
 -------------------------------------------------------------------------------
 ROUTINE             CALLS      AVE VOLUME [Bytes]
 MP_Bcast                1                     12.
 MP_Allreduce        50668                      8.
 MP_Alltoall       1311936                   4795.
 -------------------------------------------------------------------------------

 -------------------------------------------------------------------------------
 -                                                                             -
 -                                GRID STATISTICS                              -
 -                                                                             -
 -------------------------------------------------------------------------------
 LP    KERNEL             BACKEND                              COUNT     PERCENT
 4     collocate general  REF                                 598085      50.00%
 4     integrate general  REF                                 534693      44.70%
 7     integrate general  REF                                  63392       5.30%
 0     collocate general  REF                                     28       0.00%
 3     integrate general  REF                                     28       0.00%
 -------------------------------------------------------------------------------

 MEMORY| Estimated peak process memory [MiB]                                 649

 -------------------------------------------------------------------------------
 -                                                                             -
 -                         MESSAGE PASSING PERFORMANCE                         -
 -                                                                             -
 -------------------------------------------------------------------------------

 ROUTINE             CALLS      AVE VOLUME [Bytes]
 MP_Group               41
 MP_Bcast           583877                   1310.
 MP_Allreduce        24444                    151.
 MP_Sync                46
 MP_Alltoall          1591                7580714.
 MP_ISendRecv        23590                  65876.
 MP_Wait            423974
 MP_comm_split           6
 MP_ISend           476160                    262.
 MP_IRecv           688128                    187.
 MP_Recv             13455                   6802.
 -------------------------------------------------------------------------------


 -------------------------------------------------------------------------------
 -                                                                             -
 -                           R E F E R E N C E S                               -
 -                                                                             -
 -------------------------------------------------------------------------------
 
 CP2K version 8.1, the CP2K developers group (2020).
 CP2K is freely available from https://www.cp2k.org/ .

 Kuehne,Thomas D.; Iannuzzi,Marcella; Del Ben,Mauro;
 Rybkin,Vladimir V.; Seewald,Patrick; Stein,Frederick; Laino,Teodoro;
 Khaliullin,Rustam Z.; Schuett,Ole; Schiffmann,Florian; Golze,Dorothea;
 Wilhelm,Jan; Chulkov,Sergey; Bani-Hashemian,Mohammad Hossein;
 Weber,Valery; Borstnik,Urban; Taillefumier,Mathieu;
 Jakobovits,Alice Shoshana; Lazzaro,Alfio; Pabst,Hans; Mueller,Tiziano;
 Schade,Robert; Guidon,Manuel; Andermatt,Samuel; Holmberg,Nico;
 Schenter,Gregory K.; Hehn,Anna; Bussy,Augustin; Belleflamme,Fabian;
 Tabacchi,Gloria; Gloess,Andreas; Lass,Michael; Bethune,Iain;
 Mundy,Christopher J.; Plessl,Christian; Watkins,Matt;
 VandeVondele,Joost; Krack,Matthias; Hutter,Juerg. 
 The Journal of Chemical Physics, 152 (19), (2020). 
 CP2K: An electronic structure and molecular dynamics software package -
 Quickstep: Efficient and accurate electronic structure calculations.
 https://doi.org/10.1063/5.0007045

 Togo, Atsushi; Tanaka, Isao. arXiv, 1808.01590 (2018). 
 Spglib : a software library for crystal symmetry search.
 https://doi.org/xxx

 Schuett, Ole; Messmer, Peter; Hutter, Juerg; VandeVondele, Joost. 
 Electronic Structure Calculations on Graphics Processing Units, John
 Wiley & Sons, Ltd, 173-190 (2016). 
 GPU-Accelerated Sparse Matrix-Matrix Multiplication for
 Linear Scaling Density Functional Theory.
 https://doi.org/10.1002/9781118670712.ch8

 Borstnik, U; VandeVondele, J; Weber, V; Hutter, J. 
 PARALLEL COMPUTING, 40 (5-6), 47-58 (2014). 
 Sparse matrix multiplication: The distributed block-compressed sparse
 row library.
 https://doi.org/10.1016/j.parco.2014.03.012

 Hutter, J; Iannuzzi, M; Schiffmann, F; VandeVondele, J. 
 WIREs Comput Mol Sci., 4 (1), 15-25 (2014). 
 CP2K: atomistic simulations of condensed matter systems.
 https://doi.org/10.1002/wcms.1159

 VandeVondele, J; Hutter, J. 
 JOURNAL OF CHEMICAL PHYSICS, 127 (11), 114105 (2007). 
 Gaussian basis sets for accurate calculations on molecular systems in
 gas and condensed phases.
 https://doi.org/10.1063/1.2770708

 Krack, M. 
 THEORETICAL CHEMISTRY ACCOUNTS, 114 (1-3), 145-152 (2005). 
 Pseudopotentials for H to Kr optimized for gradient-corrected
 exchange-correlation functionals.
 https://doi.org/10.1007/s00214-005-0655-y

 VandeVondele, J; Krack, M; Mohamed, F; Parrinello, M; Chassaing, T;
 Hutter, J. COMPUTER PHYSICS COMMUNICATIONS, 167 (2), 103-128 (2005). 
 QUICKSTEP: Fast and accurate density functional calculations using a
 mixed Gaussian and plane waves approach.
 https://doi.org/10.1016/j.cpc.2004.12.014

 Frigo, M; Johnson, SG. 
 PROCEEDINGS OF THE IEEE, 93 (2), 216-231 (2005). 
 The design and implementation of FFTW3.
 https://doi.org/10.1109/JPROC.2004.840301

 Hartwigsen, C; Goedecker, S; Hutter, J. 
 PHYSICAL REVIEW B, 58 (7), 3641-3662 (1998). 
 Relativistic separable dual-space Gaussian pseudopotentials from H to Rn.
 https://doi.org/10.1103/PhysRevB.58.3641

 Lippert, G; Hutter, J; Parrinello, M. 
 MOLECULAR PHYSICS, 92 (3), 477-487 (1997). 
 A hybrid Gaussian and plane wave density functional scheme.
 https://doi.org/10.1080/002689797170220

 Perdew, JP; Burke, K; Ernzerhof, M. 
 PHYSICAL REVIEW LETTERS, 77 (18), 3865-3868 (1996). 
 Generalized gradient approximation made simple.
 https://doi.org/10.1103/PhysRevLett.77.3865

 Goedecker, S; Teter, M; Hutter, J. 
 PHYSICAL REVIEW B, 54 (3), 1703-1710 (1996). 
 Separable dual-space Gaussian pseudopotentials.
 https://doi.org/10.1103/PhysRevB.54.1703


 -------------------------------------------------------------------------------
 -                                                                             -
 -                                T I M I N G                                  -
 -                                                                             -
 -------------------------------------------------------------------------------
 SUBROUTINE                       CALLS  ASD         SELF TIME        TOTAL TIME
                                MAXIMUM       AVERAGE  MAXIMUM  AVERAGE  MAXIMUM
 CP2K                                 1  1.0    0.023    0.047  183.024  183.028
 cp_cell_opt                          1  2.0    0.000    0.000  182.730  182.736
 geoopt_bfgs                          1  3.0    0.001    0.002  182.730  182.736
 cp_eval_at                           7  4.0    0.001    0.002  182.121  182.121
 qs_forces                            7  5.0    0.003    0.003  182.117  182.118
 qs_energies                          7  6.0    0.013    0.015  174.727  174.730
 scf_env_do_scf                       7  7.0    0.001    0.003  164.700  165.937
 scf_env_do_scf_inner_loop           59  8.0    0.021    0.032  164.699  165.934
 qs_scf_new_mos_kp                   59  9.0    0.000    0.001  120.215  126.420
 do_general_diag_kp                  59 10.0    0.332    0.352  120.214  126.420
 dbcsr_desymmetrize_deep         123517 11.5    1.867    2.081   50.380   58.929
 mp_alltoall_i22                 222710 12.8   37.501   47.697   37.501   47.697
 rebuild_ks_matrix                   66  9.7    0.000    0.000   13.063   36.782
 qs_ks_build_kohn_sham_matrix        66 10.7    0.045    0.050   13.063   36.781
 copy_dbcsr_to_fm                 63101 11.0    0.752    0.821   35.184   35.812
 dbcsr_complete_redistribute      99193 12.2    3.033    3.271   34.423   35.560
 sum_up_and_integrate                66 11.7    0.015    0.018   10.010   33.694
 integrate_v_rspace                  66 12.7    0.006    0.023    9.995   33.677
 rs_pw_transfer                     674 13.3    0.004    0.004   26.448   33.639
 qs_rho_update_rho                   66  9.0    0.000    0.000   32.456   32.473
 calculate_rho_elec                  66 10.0    0.012    0.023   32.455   32.472
 mp_waitall_1                    423974 12.5   24.458   31.738   24.458   31.738
 qs_ks_update_qs_env                 59  9.0    0.000    0.001   11.701   31.697
 density_rs2pw                       66 11.0    0.003    0.003   24.635   31.692
 grid_integrate_task_list            66 13.7    7.356   31.059    7.356   31.059
 rs_pw_transfer_RS2PW_300            73 12.8    0.267    0.316   23.645   30.835
 grid_collocate_task_list            66 11.0    7.726   30.084    7.726   30.084
 cp_cfm_geeig                      3776 11.0    0.039    0.046   22.099   22.181
 cp_cfm_heevd                      3776 12.0   19.018   19.192   19.018   19.192
 kpoint_density_transform            66 10.7    0.119    0.129   17.831   17.892
 mp_alltoall_d11v                668130 13.4   13.958   15.119   13.958   15.119
 copy_fm_to_dbcsr                 36092 11.6    0.140    0.154   13.719   14.639
 mp_alltoall_i11v                421096 13.0   13.838   14.547   13.838   14.547
 cp_fm_start_copy_general         94208 11.2    1.159    1.872    9.192    9.493
 hybrid_alltoall_any             123517 12.5    0.500    0.521    7.739    8.363
 rskp_transform                   30208 11.0    1.574    7.149    1.574    7.149
 mp_allgather_i                  188416 12.2    4.691    6.041    4.691    6.041
 qs_ks_update_qs_env_forces           7  6.0    0.000    0.000    1.979    5.702
 mp_sum_dm                          435  6.5    4.342    5.518    4.342    5.518
 init_scf_run                         7  7.0    0.000    0.003    4.802    4.843
 scf_env_initial_rho_setup            7  8.0    0.000    0.001    4.802    4.843
 mp_cart_sub                     126220 13.0    4.352    4.413    4.352    4.413
 dbcsr_finalize                  287914 12.1    0.983    1.094    3.707    4.333
 write_kpoints_restart               59  9.0    0.047    1.368    2.873    4.119
 mp_bcast_iv                     379159 12.2    2.764    4.057    2.764    4.057
 transform_dmat                   16896 11.7    0.859    3.917    0.859    3.917
 pw_transfer                       1445 13.3    0.052    0.055    3.642    3.830
 fft_wrap_pw1pw2                   1313 14.3    0.005    0.006    3.580    3.771
 qs_energies_compute_matrix_w         7  7.0    0.000    0.000    3.731    3.769
 -------------------------------------------------------------------------------

 The number of warnings for this run is : 3
 
 -------------------------------------------------------------------------------
  **** **** ******  **  PROGRAM ENDED AT                 2021-05-24 13:44:10.553
 ***** ** ***  *** **   PROGRAM RAN ON                                   mpcl001
 **    ****   ******    PROGRAM RAN BY                                  pubo1141
 ***** **    ** ** **   PROGRAM PROCESS ID                                 18620
  **** **  *******  **  PROGRAM STOPPED IN /user/pubo1141/simulations/aiida_test
                                           s/cp2k_8.1/cell_opt_walltime_medium
