       4
 i =        1, E =       -65.9971783672
 Cs         3.3059766968        1.7468522652        1.2353341581
 Cs         9.9179345708        5.8051532505        4.1052722341
 Cs         6.6119539919        3.5741608000        2.5275651610
 Sb         0.0000000303       -0.0000212221       -0.0000150096
       4
 i =        2, E =       -65.9990569239
 Cs         3.3050990944        1.8217905714        1.2949217212
 Cs         9.9153720396        5.6672176823        4.0282364678
 Cs         6.6101956473        3.6618188773        2.6028068886
 Sb         0.0000023488       -0.0016981469       -0.0012071367
       4
 i =        3, E =       -65.9990672071
 Cs         3.3050625529        1.8265842284        1.2986965513
 Cs         9.9152415132        5.6585669040        4.0232267356
 Cs         6.6101126588        3.6676488656        2.6076890514
 Sb         0.0000042946       -0.0024231824       -0.0017229040
       4
 i =        4, E =       -65.9990722232
 Cs         3.3050743347        1.8282738493        1.2999637811
 Cs         9.9152512445        5.6557370624        4.0214197223
 Cs         6.6101233513        3.6699816505        2.6094804216
 Sb         0.0000072511       -0.0034324712       -0.0024404981
       4
 i =        5, E =       -65.9990968180
 Cs         3.3052095459        1.8342356380        1.3041917341
 Cs         9.9155018652        5.6465616812        4.0148686718
 Cs         6.6103140858        3.6793060760        2.6160911217
 Sb         0.0000266300       -0.0098791041       -0.0070233530
