# Projected DOS for atomic kind Te_1 at iteration step i = 0, E(Fermi) =     0.092883 a.u.
#     MO Eigenvalue [a.u.]      Occupation                 s                py                pz                px               d-2               d-1                d0               d+1               d+2
       1         -0.731804        2.000000        0.00015715        0.00000000        0.00000262        0.00017135        0.00000000        0.00000000        0.00003662        0.00056592        0.00006212
       2         -0.731732        2.000000        0.00013039        0.00000000        0.00009511        0.00014092        0.00000000        0.00000000        0.00028930        0.00049231        0.00007737
       3         -0.731732        2.000000        0.00013039        0.00000000        0.00009511        0.00014092        0.00000000        0.00000000        0.00028930        0.00049231        0.00007737
       4         -0.731709        2.000000        0.00011108        0.00017132        0.00000422        0.00013373        0.00041779        0.00040559        0.00000081        0.00067425        0.00001000
       5         -0.731709        2.000000        0.00011108        0.00017132        0.00000422        0.00013373        0.00041779        0.00040559        0.00000081        0.00067425        0.00001000
       6         -0.731680        2.000000        0.00014197        0.00000000        0.00001164        0.00029934        0.00000000        0.00000000        0.00001263        0.00046699        0.00008890
       7         -0.731677        2.000000        0.00014137        0.00000000        0.00001248        0.00029538        0.00000000        0.00000000        0.00001543        0.00044907        0.00009163
       8         -0.731651        2.000000        0.00009539        0.00013963        0.00006498        0.00011174        0.00048912        0.00050170        0.00018707        0.00061566        0.00003872
       9         -0.731651        2.000000        0.00009539        0.00013963        0.00006498        0.00011174        0.00048912        0.00050170        0.00018707        0.00061566        0.00003872
      10         -0.731651        2.000000        0.00009539        0.00013963        0.00006498        0.00011174        0.00048912        0.00050170        0.00018707        0.00061566        0.00003872
      11         -0.731651        2.000000        0.00009539        0.00013963        0.00006498        0.00011174        0.00048912        0.00050170        0.00018707        0.00061566        0.00003872
      12         -0.731626        2.000000        0.00012001        0.00000000        0.00006454        0.00026229        0.00000000        0.00000000        0.00018126        0.00048978        0.00008453
      13         -0.731626        2.000000        0.00012001        0.00000000        0.00006454        0.00026229        0.00000000        0.00000000        0.00018126        0.00048978        0.00008453
      14         -0.731623        2.000000        0.00011891        0.00000000        0.00006559        0.00025639        0.00000000        0.00000000        0.00018657        0.00047040        0.00008699
      15         -0.731623        2.000000        0.00011891        0.00000000        0.00006559        0.00025639        0.00000000        0.00000000        0.00018657        0.00047040        0.00008699
      16         -0.731603        2.000000        0.00010725        0.00012815        0.00001437        0.00022228        0.00090016        0.00031830        0.00000634        0.00054940        0.00002392
      17         -0.731603        2.000000        0.00010725        0.00012815        0.00001437        0.00022228        0.00090016        0.00031830        0.00000634        0.00054940        0.00002392
      18         -0.731600        2.000000        0.00010608        0.00012753        0.00001515        0.00021915        0.00087391        0.00032000        0.00000993        0.00052822        0.00002560
      19         -0.731600        2.000000        0.00010608        0.00012753        0.00001515        0.00021915        0.00087391        0.00032000        0.00000993        0.00052822        0.00002560
      20         -0.731569        2.000000        0.00008325        0.00000000        0.00019267        0.00008540        0.00000000        0.00000000        0.00119417        0.00046119        0.00013468
      21         -0.731569        2.000000        0.00008325        0.00000000        0.00019267        0.00008540        0.00000000        0.00000000        0.00119417        0.00046119        0.00013468
      22         -0.731559        2.000000        0.00009376        0.00010691        0.00005117        0.00019605        0.00094651        0.00039932        0.00012485        0.00056321        0.00003623
      23         -0.731559        2.000000        0.00009376        0.00010691        0.00005117        0.00019605        0.00094651        0.00039932        0.00012485        0.00056321        0.00003623
      24         -0.731559        2.000000        0.00009376        0.00010691        0.00005117        0.00019605        0.00094651        0.00039932        0.00012485        0.00056321        0.00003623
      25         -0.731559        2.000000        0.00009376        0.00010691        0.00005117        0.00019605        0.00094651        0.00039932        0.00012485        0.00056321        0.00003623
      26         -0.731556        2.000000        0.00009252        0.00010552        0.00005176        0.00019080        0.00091082        0.00040608        0.00013118        0.00054290        0.00003802
      27         -0.731556        2.000000        0.00009252        0.00010552        0.00005176        0.00019080        0.00091082        0.00040608        0.00013118        0.00054290        0.00003802
      28         -0.731556        2.000000        0.00009252        0.00010552        0.00005176        0.00019080        0.00091082        0.00040608        0.00013118        0.00054290        0.00003802
      29         -0.731556        2.000000        0.00009252        0.00010552        0.00005176        0.00019080        0.00091082        0.00040608        0.00013118        0.00054290        0.00003802
      30         -0.731523        2.000000        0.00002850        0.00027375        0.00001816        0.00005779        0.00123689        0.00114748        0.00016975        0.00090489        0.00003540
      31         -0.731523        2.000000        0.00002850        0.00027375        0.00001816        0.00005779        0.00123689        0.00114748        0.00016975        0.00090489        0.00003540
      32         -0.731518        2.000000        0.00006469        0.00008904        0.00014058        0.00006334        0.00068210        0.00061266        0.00091457        0.00059440        0.00011400
      33         -0.731518        2.000000        0.00006469        0.00008904        0.00014058        0.00006334        0.00068210        0.00061266        0.00091457        0.00059440        0.00011400
      34         -0.731518        2.000000        0.00006469        0.00008904        0.00014058        0.00006334        0.00068210        0.00061266        0.00091457        0.00059440        0.00011400
      35         -0.731518        2.000000        0.00006469        0.00008904        0.00014058        0.00006334        0.00068210        0.00061266        0.00091457        0.00059440        0.00011400
      36         -0.731511        2.000000        0.00008312        0.00000000        0.00009805        0.00021021        0.00000000        0.00000000        0.00055908        0.00043562        0.00009384
      37         -0.731511        2.000000        0.00008312        0.00000000        0.00009805        0.00021021        0.00000000        0.00000000        0.00055908        0.00043562        0.00009384
      38         -0.731508        2.000000        0.00008559        0.00000000        0.00009652        0.00021314        0.00000000        0.00000000        0.00054362        0.00042645        0.00009302
      39         -0.731508        2.000000        0.00008559        0.00000000        0.00009652        0.00021314        0.00000000        0.00000000        0.00054362        0.00042645        0.00009302
      40         -0.731498        2.000000        0.00002766        0.00024438        0.00003836        0.00005658        0.00133119        0.00126660        0.00023438        0.00094542        0.00005239
      41         -0.731498        2.000000        0.00002766        0.00024438        0.00003836        0.00005658        0.00133119        0.00126660        0.00023438        0.00094542        0.00005239
      42         -0.731498        2.000000        0.00002766        0.00024438        0.00003836        0.00005658        0.00133119        0.00126660        0.00023438        0.00094542        0.00005239
      43         -0.731498        2.000000        0.00002766        0.00024438        0.00003836        0.00005658        0.00133119        0.00126660        0.00023438        0.00094542        0.00005239
      44         -0.731464        2.000000        0.00006951        0.00007103        0.00008317        0.00015177        0.00114922        0.00043995        0.00047119        0.00049700        0.00006618
      45         -0.731464        2.000000        0.00006951        0.00007103        0.00008317        0.00015177        0.00114922        0.00043995        0.00047119        0.00049700        0.00006618
      46         -0.731464        2.000000        0.00006951        0.00007103        0.00008317        0.00015177        0.00114922        0.00043995        0.00047119        0.00049700        0.00006618
      47         -0.731464        2.000000        0.00006951        0.00007103        0.00008317        0.00015177        0.00114922        0.00043995        0.00047119        0.00049700        0.00006618
      48         -0.731461        2.000000        0.00007295        0.00007324        0.00008228        0.00015350        0.00112669        0.00044607        0.00045486        0.00049207        0.00006524
      49         -0.731461        2.000000        0.00007295        0.00007324        0.00008228        0.00015350        0.00112669        0.00044607        0.00045486        0.00049207        0.00006524
      50         -0.731461        2.000000        0.00007295        0.00007324        0.00008228        0.00015350        0.00112669        0.00044607        0.00045486        0.00049207        0.00006524
      51         -0.731461        2.000000        0.00007295        0.00007324        0.00008228        0.00015350        0.00112669        0.00044607        0.00045486        0.00049207        0.00006524
      52         -0.731450        2.000000        0.00005960        0.00000000        0.00023394        0.00002254        0.00000000        0.00000000        0.00266418        0.00101424        0.00022442
      53         -0.731449        2.000000        0.00003261        0.00020992        0.00002987        0.00007696        0.00244082        0.00091399        0.00026062        0.00081045        0.00001728
      54         -0.731449        2.000000        0.00003261        0.00020992        0.00002987        0.00007696        0.00244082        0.00091399        0.00026062        0.00081045        0.00001728
      55         -0.731446        2.000000        0.00003070        0.00020853        0.00003035        0.00007624        0.00234519        0.00092345        0.00026071        0.00077707        0.00001685
      56         -0.731446        2.000000        0.00003070        0.00020853        0.00003035        0.00007624        0.00234519        0.00092345        0.00026071        0.00077707        0.00001685
      57         -0.731445        2.000000        0.00001955        0.00020120        0.00006582        0.00003373        0.00151628        0.00139328        0.00057228        0.00100118        0.00009888
      58         -0.731445        2.000000        0.00001955        0.00020120        0.00006582        0.00003373        0.00151628        0.00139328        0.00057228        0.00100118        0.00009888
      59         -0.731445        2.000000        0.00001955        0.00020120        0.00006582        0.00003373        0.00151628        0.00139328        0.00057228        0.00100118        0.00009888
      60         -0.731445        2.000000        0.00001955        0.00020120        0.00006582        0.00003373        0.00151628        0.00139328        0.00057228        0.00100118        0.00009888
      61         -0.731436        2.000000        0.00008944        0.00000000        0.00004437        0.00028395        0.00000000        0.00000000        0.00000527        0.00016334        0.00012119
      62         -0.731433        2.000000        0.00008719        0.00000000        0.00004748        0.00028231        0.00000000        0.00000000        0.00008537        0.00023543        0.00010944
      63         -0.731429        2.000000        0.00002962        0.00019377        0.00004800        0.00006894        0.00251085        0.00101422        0.00029441        0.00089419        0.00003127
      64         -0.731429        2.000000        0.00002962        0.00019377        0.00004800        0.00006894        0.00251085        0.00101422        0.00029441        0.00089419        0.00003127
      65         -0.731429        2.000000        0.00002962        0.00019377        0.00004800        0.00006894        0.00251085        0.00101422        0.00029441        0.00089419        0.00003127
      66         -0.731429        2.000000        0.00002962        0.00019377        0.00004800        0.00006894        0.00251085        0.00101422        0.00029441        0.00089419        0.00003127
      67         -0.731426        2.000000        0.00002676        0.00019037        0.00004822        0.00006924        0.00240731        0.00101919        0.00029398        0.00083941        0.00003081
      68         -0.731426        2.000000        0.00002676        0.00019037        0.00004822        0.00006924        0.00240731        0.00101919        0.00029398        0.00083941        0.00003081
      69         -0.731426        2.000000        0.00002676        0.00019037        0.00004822        0.00006924        0.00240731        0.00101919        0.00029398        0.00083941        0.00003081
      70         -0.731426        2.000000        0.00002676        0.00019037        0.00004822        0.00006924        0.00240731        0.00101919        0.00029398        0.00083941        0.00003081
      71         -0.731423        2.000000        0.00003971        0.00007139        0.00017837        0.00000558        0.00072508        0.00066410        0.00211002        0.00106133        0.00019636
      72         -0.731423        2.000000        0.00003971        0.00007139        0.00017837        0.00000558        0.00072508        0.00066410        0.00211002        0.00106133        0.00019636
      73         -0.731413        2.000000        0.00000314        0.00019077        0.00007418        0.00000633        0.00151526        0.00141904        0.00093566        0.00105919        0.00013103
      74         -0.731413        2.000000        0.00000314        0.00019077        0.00007418        0.00000633        0.00151526        0.00141904        0.00093566        0.00105919        0.00013103
      75         -0.731394        2.000000        0.00007359        0.00006080        0.00005055        0.00020507        0.00181359        0.00012744        0.00001277        0.00016630        0.00006650
      76         -0.731394        2.000000        0.00007359        0.00006080        0.00005055        0.00020507        0.00181359        0.00012744        0.00001277        0.00016630        0.00006650
      77         -0.731391        2.000000        0.00007248        0.00005953        0.00004832        0.00020901        0.00189025        0.00011519        0.00002908        0.00022736        0.00005443
      78         -0.731391        2.000000        0.00007248        0.00005953        0.00004832        0.00020901        0.00189025        0.00011519        0.00002908        0.00022736        0.00005443
      79         -0.731386        2.000000        0.00002292        0.00016047        0.00006767        0.00004199        0.00269773        0.00107557        0.00059188        0.00096345        0.00006618
      80         -0.731386        2.000000        0.00002292        0.00016047        0.00006767        0.00004199        0.00269773        0.00107557        0.00059188        0.00096345        0.00006618
      81         -0.731386        2.000000        0.00002292        0.00016047        0.00006767        0.00004199        0.00269773        0.00107557        0.00059188        0.00096345        0.00006618
      82         -0.731386        2.000000        0.00002292        0.00016047        0.00006767        0.00004199        0.00269773        0.00107557        0.00059188        0.00096345        0.00006618
      83         -0.731383        2.000000        0.00002400        0.00016336        0.00006834        0.00004287        0.00257187        0.00110228        0.00057865        0.00093840        0.00006411
      84         -0.731383        2.000000        0.00002400        0.00016336        0.00006834        0.00004287        0.00257187        0.00110228        0.00057865        0.00093840        0.00006411
      85         -0.731383        2.000000        0.00002400        0.00016336        0.00006834        0.00004287        0.00257187        0.00110228        0.00057865        0.00093840        0.00006411
      86         -0.731383        2.000000        0.00002400        0.00016336        0.00006834        0.00004287        0.00257187        0.00110228        0.00057865        0.00093840        0.00006411
      87         -0.731373        2.000000        0.00005424        0.00000000        0.00019090        0.00003458        0.00000000        0.00000000        0.00290129        0.00165770        0.00028211
      88         -0.731370        2.000000        0.00005187        0.00000000        0.00018740        0.00003695        0.00000000        0.00000000        0.00283276        0.00161836        0.00027091
      89         -0.731354        2.000000        0.00004150        0.00006348        0.00015416        0.00001446        0.00111237        0.00051688        0.00231239        0.00152237        0.00022486
      90         -0.731354        2.000000        0.00004150        0.00006348        0.00015416        0.00001446        0.00111237        0.00051688        0.00231239        0.00152237        0.00022486
      91         -0.731353        2.000000        0.00001033        0.00015472        0.00007780        0.00000497        0.00271784        0.00109228        0.00110797        0.00119721        0.00011041
      92         -0.731353        2.000000        0.00001033        0.00015472        0.00007780        0.00000497        0.00271784        0.00109228        0.00110797        0.00119721        0.00011041
      93         -0.731352        2.000000        0.00003838        0.00006068        0.00014998        0.00001746        0.00113782        0.00050220        0.00225283        0.00148516        0.00021360
      94         -0.731352        2.000000        0.00003838        0.00006068        0.00014998        0.00001746        0.00113782        0.00050220        0.00225283        0.00148516        0.00021360
      95         -0.731350        2.000000        0.00001051        0.00015538        0.00007818        0.00000557        0.00251802        0.00112791        0.00108410        0.00113622        0.00010847
      96         -0.731350        2.000000        0.00001051        0.00015538        0.00007818        0.00000557        0.00251802        0.00112791        0.00108410        0.00113622        0.00010847
      97         -0.731318        2.000000        0.00006188        0.00000000        0.00016369        0.00011047        0.00000000        0.00000000        0.00225691        0.00194630        0.00027702
      98         -0.731318        2.000000        0.00006188        0.00000000        0.00016369        0.00011047        0.00000000        0.00000000        0.00225691        0.00194630        0.00027702
      99         -0.731315        2.000000        0.00006426        0.00000000        0.00016033        0.00010998        0.00000000        0.00000000        0.00217759        0.00186577        0.00027428
     100         -0.731315        2.000000        0.00006426        0.00000000        0.00016033        0.00010998        0.00000000        0.00000000        0.00217759        0.00186577        0.00027428
     101         -0.731315        2.000000        0.00003119        0.00000000        0.00006751        0.00021459        0.00000000        0.00000000        0.00002280        0.00004492        0.00007274
     102         -0.731299        2.000000        0.00004372        0.00012228        0.00006918        0.00006167        0.00477208        0.00034992        0.00031329        0.00044359        0.00002842
     103         -0.731299        2.000000        0.00004372        0.00012228        0.00006918        0.00006167        0.00477208        0.00034992        0.00031329        0.00044359        0.00002842
     104         -0.731298        2.000000        0.00004037        0.00005898        0.00014134        0.00007112        0.00187691        0.00018278        0.00177399        0.00169872        0.00019626
     105         -0.731298        2.000000        0.00004037        0.00005898        0.00014134        0.00007112        0.00187691        0.00018278        0.00177399        0.00169872        0.00019626
     106         -0.731298        2.000000        0.00004037        0.00005898        0.00014134        0.00007112        0.00187691        0.00018278        0.00177399        0.00169872        0.00019626
     107         -0.731298        2.000000        0.00004037        0.00005898        0.00014134        0.00007112        0.00187691        0.00018278        0.00177399        0.00169872        0.00019626
     108         -0.731296        2.000000        0.00004867        0.00012706        0.00007049        0.00006205        0.00475150        0.00037855        0.00032655        0.00048211        0.00002685
     109         -0.731296        2.000000        0.00004867        0.00012706        0.00007049        0.00006205        0.00475150        0.00037855        0.00032655        0.00048211        0.00002685
     110         -0.731295        2.000000        0.00004415        0.00005959        0.00014012        0.00007061        0.00179483        0.00019609        0.00170378        0.00159408        0.00019743
     111         -0.731295        2.000000        0.00004415        0.00005959        0.00014012        0.00007061        0.00179483        0.00019609        0.00170378        0.00159408        0.00019743
     112         -0.731295        2.000000        0.00004415        0.00005959        0.00014012        0.00007061        0.00179483        0.00019609        0.00170378        0.00159408        0.00019743
     113         -0.731295        2.000000        0.00004415        0.00005959        0.00014012        0.00007061        0.00179483        0.00019609        0.00170378        0.00159408        0.00019743
     114         -0.731290        2.000000        0.00003468        0.00003790        0.00007599        0.00014823        0.00234468        0.00000952        0.00000527        0.00000197        0.00006183
     115         -0.731290        2.000000        0.00003468        0.00003790        0.00007599        0.00014823        0.00234468        0.00000952        0.00000527        0.00000197        0.00006183
     116         -0.731269        2.000000        0.00001653        0.00012955        0.00010605        0.00002816        0.00480868        0.00040718        0.00073002        0.00092796        0.00006550
     117         -0.731269        2.000000        0.00001653        0.00012955        0.00010605        0.00002816        0.00480868        0.00040718        0.00073002        0.00092796        0.00006550
     118         -0.731269        2.000000        0.00001653        0.00012955        0.00010605        0.00002816        0.00480868        0.00040718        0.00073002        0.00092796        0.00006550
     119         -0.731269        2.000000        0.00001653        0.00012955        0.00010605        0.00002816        0.00480868        0.00040718        0.00073002        0.00092796        0.00006550
     120         -0.731266        2.000000        0.00001998        0.00013242        0.00010767        0.00002901        0.00466730        0.00044658        0.00071112        0.00089787        0.00006409
     121         -0.731266        2.000000        0.00001998        0.00013242        0.00010767        0.00002901        0.00466730        0.00044658        0.00071112        0.00089787        0.00006409
     122         -0.731266        2.000000        0.00001998        0.00013242        0.00010767        0.00002901        0.00466730        0.00044658        0.00071112        0.00089787        0.00006409
     123         -0.731266        2.000000        0.00001998        0.00013242        0.00010767        0.00002901        0.00466730        0.00044658        0.00071112        0.00089787        0.00006409
     124         -0.731242        2.000000        0.00004757        0.00000000        0.00015989        0.00008303        0.00000000        0.00000000        0.00255623        0.00233521        0.00025797
     125         -0.731242        2.000000        0.00004757        0.00000000        0.00015989        0.00008303        0.00000000        0.00000000        0.00255623        0.00233521        0.00025797
     126         -0.731239        2.000000        0.00003379        0.00000000        0.00014935        0.00009567        0.00000000        0.00000000        0.00247285        0.00270599        0.00017854
     127         -0.731239        2.000000        0.00003380        0.00000000        0.00014935        0.00009567        0.00000000        0.00000000        0.00247285        0.00270599        0.00017854
     128         -0.731237        2.000000        0.00003056        0.00000000        0.00014470        0.00012635        0.00000000        0.00000000        0.00180487        0.00154671        0.00017140
     129         -0.731237        2.000000        0.00003056        0.00000000        0.00014470        0.00012635        0.00000000        0.00000000        0.00180487        0.00154671        0.00017140
     130         -0.731236        2.000000        0.00001892        0.00012083        0.00012247        0.00001014        0.00480255        0.00043702        0.00103338        0.00117420        0.00008107
     131         -0.731236        2.000000        0.00001892        0.00012083        0.00012247        0.00001014        0.00480255        0.00043702        0.00103338        0.00117420        0.00008107
     132         -0.731236        2.000000        0.00001892        0.00012083        0.00012247        0.00001014        0.00480255        0.00043702        0.00103338        0.00117420        0.00008107
     133         -0.731236        2.000000        0.00001892        0.00012083        0.00012247        0.00001014        0.00480255        0.00043702        0.00103337        0.00117420        0.00008107
     134         -0.731233        2.000000        0.00003562        0.00005134        0.00014974        0.00004775        0.00195679        0.00017381        0.00209947        0.00205954        0.00019076
     135         -0.731233        2.000000        0.00003562        0.00005134        0.00014974        0.00004775        0.00195679        0.00017381        0.00209947        0.00205954        0.00019076
     136         -0.731233        2.000000        0.00003562        0.00005134        0.00014974        0.00004775        0.00195679        0.00017381        0.00209947        0.00205954        0.00019076
     137         -0.731233        2.000000        0.00003562        0.00005134        0.00014974        0.00004775        0.00195679        0.00017381        0.00209947        0.00205954        0.00019076
     138         -0.731233        2.000000        0.00002216        0.00012390        0.00012420        0.00000840        0.00494392        0.00043425        0.00108640        0.00127618        0.00008060
     139         -0.731233        2.000000        0.00002216        0.00012390        0.00012420        0.00000840        0.00494392        0.00043425        0.00108640        0.00127618        0.00008060
     140         -0.731233        2.000000        0.00002216        0.00012390        0.00012420        0.00000840        0.00494392        0.00043425        0.00108640        0.00127618        0.00008060
     141         -0.731233        2.000000        0.00002216        0.00012390        0.00012420        0.00000840        0.00494392        0.00043425        0.00108640        0.00127618        0.00008060
     142         -0.731230        2.000000        0.00003425        0.00004976        0.00014869        0.00004777        0.00208390        0.00016218        0.00217255        0.00228148        0.00017442
     143         -0.731230        2.000000        0.00003425        0.00004976        0.00014869        0.00004777        0.00208390        0.00016218        0.00217255        0.00228148        0.00017442
     144         -0.731230        2.000000        0.00003425        0.00004976        0.00014869        0.00004777        0.00208390        0.00016218        0.00217255        0.00228148        0.00017442