# Projected DOS for atomic kind Cs_7 at iteration step i = 0, E(Fermi) =     0.092883 a.u.
#     MO Eigenvalue [a.u.]      Occupation                 s                py                pz                px               d-2               d-1                d0               d+1               d+2
       1         -0.731804        2.000000        0.02086136        0.00000000        0.00018816        0.00078419        0.00000000        0.00000000        0.00008446        0.00026979        0.00003603
       2         -0.731732        2.000000        0.01545245        0.00000000        0.00464493        0.00100097        0.00000000        0.00000000        0.00043942        0.00030513        0.00038241
       3         -0.731732        2.000000        0.01545245        0.00000000        0.00464493        0.00100097        0.00000000        0.00000000        0.00043942        0.00030513        0.00038241
       4         -0.731709        2.000000        0.01381847        0.00459218        0.00000752        0.00061756        0.00016533        0.00170398        0.00030027        0.00024445        0.00022088
       5         -0.731709        2.000000        0.01381847        0.00459218        0.00000752        0.00061756        0.00016533        0.00170398        0.00030027        0.00024445        0.00022088
       6         -0.731680        2.000000        0.01320283        0.00000000        0.00021578        0.00585062        0.00000000        0.00000000        0.00099019        0.00031814        0.00016109
       7         -0.731677        2.000000        0.01316048        0.00000000        0.00021137        0.00578893        0.00000000        0.00000000        0.00105038        0.00035237        0.00015688
       8         -0.731651        2.000000        0.01015294        0.00387162        0.00330174        0.00078085        0.00022895        0.00212067        0.00041740        0.00024759        0.00049966
       9         -0.731651        2.000000        0.01015294        0.00387162        0.00330174        0.00078085        0.00022895        0.00212067        0.00041740        0.00024759        0.00049966
      10         -0.731651        2.000000        0.01015294        0.00387162        0.00330174        0.00078085        0.00022895        0.00212067        0.00041740        0.00024759        0.00049966
      11         -0.731651        2.000000        0.01015294        0.00387162        0.00330174        0.00078085        0.00022895        0.00212067        0.00041740        0.00024759        0.00049966
      12         -0.731626        2.000000        0.00962601        0.00000000        0.00362982        0.00519751        0.00000000        0.00000000        0.00074913        0.00135390        0.00032657
      13         -0.731626        2.000000        0.00962601        0.00000000        0.00362982        0.00519751        0.00000000        0.00000000        0.00074913        0.00135390        0.00032657
      14         -0.731623        2.000000        0.00951943        0.00000000        0.00373051        0.00508015        0.00000000        0.00000000        0.00079861        0.00142043        0.00032636
      15         -0.731623        2.000000        0.00951943        0.00000000        0.00373051        0.00508015        0.00000000        0.00000000        0.00079861        0.00142043        0.00032636
      16         -0.731603        2.000000        0.00892439        0.00290742        0.00003262        0.00398626        0.00177605        0.00138207        0.00098351        0.00029771        0.00012035
      17         -0.731603        2.000000        0.00892439        0.00290742        0.00003262        0.00398626        0.00177605        0.00138207        0.00098351        0.00029771        0.00012035
      18         -0.731600        2.000000        0.00889325        0.00289187        0.00002600        0.00393211        0.00176516        0.00139103        0.00105076        0.00032675        0.00011087
      19         -0.731600        2.000000        0.00889325        0.00289187        0.00002600        0.00393211        0.00176516        0.00139103        0.00105076        0.00032675        0.00011087
      20         -0.731569        2.000000        0.00631121        0.00000000        0.00989929        0.00138615        0.00000000        0.00000000        0.00227783        0.00017222        0.00104298
      21         -0.731569        2.000000        0.00631121        0.00000000        0.00989929        0.00138615        0.00000000        0.00000000        0.00227783        0.00017222        0.00104298
      22         -0.731559        2.000000        0.00646403        0.00245544        0.00256659        0.00357245        0.00168463        0.00167074        0.00066437        0.00105058        0.00030291
      23         -0.731559        2.000000        0.00646403        0.00245544        0.00256659        0.00357245        0.00168463        0.00167074        0.00066437        0.00105058        0.00030291
      24         -0.731559        2.000000        0.00646403        0.00245544        0.00256659        0.00357245        0.00168463        0.00167074        0.00066437        0.00105058        0.00030291
      25         -0.731559        2.000000        0.00646403        0.00245544        0.00256659        0.00357245        0.00168463        0.00167074        0.00066437        0.00105058        0.00030291
      26         -0.731556        2.000000        0.00637286        0.00243191        0.00265096        0.00348125        0.00166028        0.00169630        0.00071733        0.00109760        0.00029960
      27         -0.731556        2.000000        0.00637286        0.00243191        0.00265096        0.00348125        0.00166028        0.00169630        0.00071733        0.00109760        0.00029960
      28         -0.731556        2.000000        0.00637286        0.00243191        0.00265096        0.00348125        0.00166028        0.00169630        0.00071733        0.00109760        0.00029960
      29         -0.731556        2.000000        0.00637286        0.00243191        0.00265096        0.00348125        0.00166028        0.00169630        0.00071733        0.00109760        0.00029960
      30         -0.731523        2.000000        0.00364897        0.00843864        0.00062622        0.00026445        0.00042789        0.00507813        0.00099752        0.00016989        0.00071376
      31         -0.731523        2.000000        0.00364897        0.00843864        0.00062622        0.00026445        0.00042789        0.00507813        0.00099752        0.00016989        0.00071376
      32         -0.731518        2.000000        0.00392515        0.00266245        0.00739290        0.00100253        0.00039166        0.00256994        0.00177938        0.00010169        0.00101934
      33         -0.731518        2.000000        0.00392515        0.00266245        0.00739290        0.00100253        0.00039166        0.00256994        0.00177938        0.00010169        0.00101934
      34         -0.731518        2.000000        0.00392515        0.00266245        0.00739290        0.00100253        0.00039166        0.00256994        0.00177938        0.00010169        0.00101934
      35         -0.731518        2.000000        0.00392515        0.00266245        0.00739290        0.00100253        0.00039166        0.00256994        0.00177938        0.00010169        0.00101934
      36         -0.731511        2.000000        0.00376997        0.00000000        0.00677590        0.00493104        0.00000000        0.00000000        0.00172915        0.00235424        0.00073569
      37         -0.731511        2.000000        0.00376997        0.00000000        0.00677590        0.00493104        0.00000000        0.00000000        0.00172915        0.00235424        0.00073569
      38         -0.731508        2.000000        0.00378354        0.00000000        0.00666280        0.00508179        0.00000000        0.00000000        0.00170890        0.00231048        0.00072680
      39         -0.731508        2.000000        0.00378354        0.00000000        0.00666280        0.00508179        0.00000000        0.00000000        0.00170890        0.00231048        0.00072680
      40         -0.731498        2.000000        0.00260094        0.00766784        0.00174702        0.00030608        0.00049976        0.00552134        0.00077483        0.00012321        0.00075566
      41         -0.731498        2.000000        0.00260094        0.00766784        0.00174702        0.00030608        0.00049976        0.00552134        0.00077483        0.00012321        0.00075566
      42         -0.731498        2.000000        0.00260094        0.00766784        0.00174701        0.00030608        0.00049976        0.00552134        0.00077483        0.00012321        0.00075566
      43         -0.731498        2.000000        0.00260094        0.00766784        0.00174701        0.00030608        0.00049976        0.00552134        0.00077483        0.00012321        0.00075566
      44         -0.731464        2.000000        0.00246228        0.00157805        0.00510731        0.00329880        0.00171542        0.00186014        0.00131980        0.00181261        0.00066488
      45         -0.731464        2.000000        0.00246228        0.00157805        0.00510731        0.00329880        0.00171542        0.00186014        0.00131980        0.00181261        0.00066488
      46         -0.731464        2.000000        0.00246228        0.00157805        0.00510731        0.00329880        0.00171542        0.00186014        0.00131980        0.00181261        0.00066488
      47         -0.731464        2.000000        0.00246228        0.00157805        0.00510731        0.00329880        0.00171542        0.00186014        0.00131980        0.00181261        0.00066488
      48         -0.731461        2.000000        0.00246741        0.00153606        0.00502032        0.00343214        0.00179851        0.00180367        0.00129776        0.00176063        0.00066392
      49         -0.731461        2.000000        0.00246741        0.00153606        0.00502032        0.00343214        0.00179851        0.00180367        0.00129776        0.00176063        0.00066392
      50         -0.731461        2.000000        0.00246741        0.00153606        0.00502032        0.00343214        0.00179851        0.00180367        0.00129776        0.00176063        0.00066392
      51         -0.731461        2.000000        0.00246741        0.00153606        0.00502032        0.00343214        0.00179851        0.00180367        0.00129776        0.00176063        0.00066392
      52         -0.731450        2.000000        0.00266545        0.00000000        0.01101283        0.00039458        0.00000000        0.00000000        0.00319170        0.00003594        0.00123572
      53         -0.731449        2.000000        0.00243999        0.00567775        0.00042010        0.00118859        0.00363609        0.00400334        0.00111084        0.00045612        0.00033199
      54         -0.731449        2.000000        0.00243999        0.00567775        0.00042010        0.00118859        0.00363609        0.00400334        0.00111084        0.00045612        0.00033199
      55         -0.731446        2.000000        0.00243104        0.00562692        0.00041907        0.00115551        0.00361445        0.00403194        0.00118425        0.00046600        0.00031642
      56         -0.731446        2.000000        0.00243104        0.00562692        0.00041907        0.00115551        0.00361445        0.00403194        0.00118425        0.00046600        0.00031642
      57         -0.731445        2.000000        0.00082147        0.00667504        0.00323132        0.00025888        0.00060773        0.00598529        0.00121131        0.00005430        0.00088628
      58         -0.731445        2.000000        0.00082147        0.00667504        0.00323132        0.00025888        0.00060773        0.00598529        0.00121131        0.00005430        0.00088628
      59         -0.731445        2.000000        0.00082147        0.00667503        0.00323132        0.00025888        0.00060773        0.00598529        0.00121131        0.00005430        0.00088628
      60         -0.731445        2.000000        0.00082147        0.00667503        0.00323132        0.00025888        0.00060773        0.00598529        0.00121131        0.00005430        0.00088628
      61         -0.731436        2.000000        0.00290483        0.00000000        0.00026090        0.00910697        0.00000000        0.00000000        0.00410819        0.00049279        0.00118254
      62         -0.731433        2.000000        0.00301994        0.00000000        0.00063255        0.00889711        0.00000000        0.00000000        0.00394211        0.00037075        0.00121301
      63         -0.731429        2.000000        0.00173661        0.00519361        0.00126053        0.00104727        0.00356602        0.00423368        0.00077009        0.00068379        0.00039134
      64         -0.731429        2.000000        0.00173661        0.00519361        0.00126053        0.00104727        0.00356602        0.00423368        0.00077009        0.00068379        0.00039134
      65         -0.731429        2.000000        0.00173661        0.00519361        0.00126053        0.00104727        0.00356602        0.00423368        0.00077009        0.00068379        0.00039134
      66         -0.731429        2.000000        0.00173661        0.00519361        0.00126053        0.00104727        0.00356602        0.00423368        0.00077009        0.00068379        0.00039134
      67         -0.731426        2.000000        0.00169756        0.00515983        0.00128453        0.00098650        0.00344844        0.00434798        0.00086190        0.00073184        0.00036688
      68         -0.731426        2.000000        0.00169756        0.00515983        0.00128453        0.00098650        0.00344844        0.00434798        0.00086190        0.00073184        0.00036688
      69         -0.731426        2.000000        0.00169756        0.00515983        0.00128453        0.00098650        0.00344844        0.00434798        0.00086190        0.00073184        0.00036688
      70         -0.731426        2.000000        0.00169756        0.00515983        0.00128453        0.00098650        0.00344844        0.00434798        0.00086190        0.00073184        0.00036688
      71         -0.731423        2.000000        0.00130676        0.00241684        0.00856656        0.00010101        0.00023868        0.00279103        0.00276406        0.00003194        0.00114939
      72         -0.731423        2.000000        0.00130676        0.00241684        0.00856656        0.00010101        0.00023868        0.00279103        0.00276406        0.00003194        0.00114939
      73         -0.731413        2.000000        0.00005473        0.00664030        0.00365140        0.00002553        0.00048482        0.00611156        0.00186615        0.00007951        0.00096876
      74         -0.731413        2.000000        0.00005473        0.00664030        0.00365140        0.00002553        0.00048482        0.00611156        0.00186615        0.00007951        0.00096876
      75         -0.731394        2.000000        0.00206106        0.00060593        0.00009940        0.00640844        0.00311305        0.00066780        0.00323627        0.00033988        0.00084914
      76         -0.731394        2.000000        0.00206106        0.00060593        0.00009940        0.00640844        0.00311305        0.00066780        0.00323627        0.00033988        0.00084914
      77         -0.731391        2.000000        0.00216214        0.00069910        0.00019742        0.00639820        0.00303224        0.00073194        0.00307979        0.00025102        0.00088050
      78         -0.731391        2.000000        0.00216214        0.00069910        0.00019742        0.00639820        0.00303224        0.00073194        0.00307979        0.00025102        0.00088050
      79         -0.731386        2.000000        0.00053425        0.00458160        0.00232815        0.00065707        0.00324901        0.00458572        0.00095628        0.00107244        0.00049721
      80         -0.731386        2.000000        0.00053425        0.00458160        0.00232815        0.00065707        0.00324901        0.00458572        0.00095628        0.00107244        0.00049721
      81         -0.731386        2.000000        0.00053425        0.00458160        0.00232815        0.00065707        0.00324901        0.00458572        0.00095628        0.00107244        0.00049721
      82         -0.731386        2.000000        0.00053425        0.00458160        0.00232815        0.00065707        0.00324901        0.00458572        0.00095628        0.00107244        0.00049721
      83         -0.731383        2.000000        0.00056738        0.00444379        0.00232366        0.00067304        0.00342122        0.00448271        0.00098338        0.00103254        0.00049344
      84         -0.731383        2.000000        0.00056738        0.00444379        0.00232366        0.00067304        0.00342122        0.00448271        0.00098338        0.00103254        0.00049344
      85         -0.731383        2.000000        0.00056738        0.00444379        0.00232366        0.00067304        0.00342122        0.00448271        0.00098338        0.00103254        0.00049344
      86         -0.731383        2.000000        0.00056738        0.00444379        0.00232366        0.00067304        0.00342122        0.00448271        0.00098338        0.00103254        0.00049344
      87         -0.731373        2.000000        0.00208440        0.00000000        0.00795482        0.00032157        0.00000000        0.00000000        0.00245711        0.00386482        0.00086975
      88         -0.731370        2.000000        0.00214562        0.00000000        0.00802441        0.00028565        0.00000000        0.00000000        0.00245376        0.00381293        0.00087778
      89         -0.731354        2.000000        0.00101119        0.00177686        0.00609036        0.00014651        0.00097192        0.00203715        0.00214857        0.00296807        0.00077098
      90         -0.731354        2.000000        0.00101119        0.00177686        0.00609036        0.00014651        0.00097192        0.00203715        0.00214857        0.00296807        0.00077098
      91         -0.731353        2.000000        0.00003780        0.00485626        0.00257959        0.00007098        0.00277131        0.00468829        0.00147444        0.00134930        0.00056212
      92         -0.731353        2.000000        0.00003780        0.00485626        0.00257959        0.00007098        0.00277131        0.00468829        0.00147444        0.00134930        0.00056212
      93         -0.731352        2.000000        0.00108559        0.00183317        0.00614035        0.00010646        0.00087534        0.00211608        0.00213339        0.00293008        0.00077218
      94         -0.731352        2.000000        0.00108559        0.00183317        0.00614035        0.00010646        0.00087534        0.00211608        0.00213339        0.00293008        0.00077218
      95         -0.731350        2.000000        0.00004021        0.00469608        0.00261630        0.00005613        0.00288117        0.00464960        0.00155581        0.00132480        0.00054968
      96         -0.731350        2.000000        0.00004021        0.00469608        0.00261630        0.00005613        0.00288117        0.00464960        0.00155581        0.00132480        0.00054968
      97         -0.731318        2.000000        0.00310647        0.00000000        0.00120334        0.00342168        0.00000000        0.00000000        0.00292672        0.00359211        0.00091196
      98         -0.731318        2.000000        0.00310647        0.00000000        0.00120334        0.00342168        0.00000000        0.00000000        0.00292672        0.00359211        0.00091196
      99         -0.731315        2.000000        0.00305100        0.00000000        0.00120828        0.00354885        0.00000000        0.00000000        0.00295519        0.00345481        0.00092332
     100         -0.731315        2.000000        0.00305099        0.00000000        0.00120828        0.00354885        0.00000000        0.00000000        0.00295519        0.00345481        0.00092332
     101         -0.731315        2.000000        0.00018704        0.00000000        0.00036910        0.00837752        0.00000000        0.00000000        0.00599755        0.00033710        0.00188858
     102         -0.731299        2.000000        0.00063744        0.00149925        0.00008358        0.00195615        0.00672738        0.00195945        0.00159449        0.00058146        0.00036697
     103         -0.731299        2.000000        0.00063744        0.00149926        0.00008358        0.00195615        0.00672738        0.00195945        0.00159449        0.00058146        0.00036697
     104         -0.731298        2.000000        0.00194137        0.00114038        0.00082315        0.00238394        0.00212884        0.00091610        0.00241037        0.00273015        0.00063143
     105         -0.731298        2.000000        0.00194137        0.00114038        0.00082315        0.00238394        0.00212884        0.00091610        0.00241037        0.00273015        0.00063143
     106         -0.731298        2.000000        0.00194137        0.00114038        0.00082315        0.00238394        0.00212884        0.00091611        0.00241037        0.00273015        0.00063143
     107         -0.731298        2.000000        0.00194137        0.00114038        0.00082315        0.00238394        0.00212884        0.00091611        0.00241037        0.00273015        0.00063143
     108         -0.731296        2.000000        0.00064200        0.00137985        0.00012320        0.00199330        0.00697850        0.00180577        0.00152728        0.00051977        0.00039600
     109         -0.731296        2.000000        0.00064200        0.00137985        0.00012320        0.00199330        0.00697850        0.00180577        0.00152728        0.00051977        0.00039600
     110         -0.731295        2.000000        0.00186313        0.00106926        0.00082192        0.00249608        0.00219898        0.00089023        0.00248926        0.00262613        0.00063036
     111         -0.731295        2.000000        0.00186313        0.00106926        0.00082192        0.00249608        0.00219898        0.00089023        0.00248926        0.00262613        0.00063036
     112         -0.731295        2.000000        0.00186312        0.00106926        0.00082192        0.00249608        0.00219898        0.00089023        0.00248926        0.00262613        0.00063036
     113         -0.731295        2.000000        0.00186312        0.00106926        0.00082192        0.00249608        0.00219898        0.00089023        0.00248926        0.00262613        0.00063036
     114         -0.731290        2.000000        0.00016389        0.00002672        0.00021407        0.00609294        0.00300172        0.00028840        0.00450969        0.00009194        0.00152547
     115         -0.731290        2.000000        0.00016389        0.00002672        0.00021407        0.00609294        0.00300172        0.00028840        0.00450969        0.00009194        0.00152547
     116         -0.731269        2.000000        0.00041313        0.00183283        0.00027778        0.00106313        0.00609970        0.00210804        0.00119464        0.00135746        0.00029756
     117         -0.731269        2.000000        0.00041313        0.00183283        0.00027778        0.00106313        0.00609970        0.00210804        0.00119464        0.00135746        0.00029756
     118         -0.731269        2.000000        0.00041313        0.00183283        0.00027778        0.00106313        0.00609970        0.00210804        0.00119464        0.00135746        0.00029756
     119         -0.731269        2.000000        0.00041313        0.00183283        0.00027778        0.00106313        0.00609970        0.00210804        0.00119464        0.00135746        0.00029756
     120         -0.731266        2.000000        0.00042024        0.00165574        0.00031032        0.00109805        0.00634648        0.00197621        0.00121344        0.00125631        0.00031223
     121         -0.731266        2.000000        0.00042024        0.00165574        0.00031032        0.00109805        0.00634648        0.00197621        0.00121344        0.00125631        0.00031223
     122         -0.731266        2.000000        0.00042024        0.00165574        0.00031032        0.00109805        0.00634648        0.00197621        0.00121344        0.00125631        0.00031223
     123         -0.731266        2.000000        0.00042024        0.00165574        0.00031032        0.00109805        0.00634648        0.00197621        0.00121344        0.00125631        0.00031223
     124         -0.731242        2.000000        0.00154016        0.00000000        0.00148677        0.00238617        0.00000000        0.00000000        0.00188912        0.00631825        0.00048187
     125         -0.731242        2.000000        0.00154016        0.00000000        0.00148677        0.00238617        0.00000000        0.00000000        0.00188912        0.00631825        0.00048187
     126         -0.731239        2.000000        0.00202934        0.00000000        0.00153804        0.00259223        0.00000000        0.00000000        0.00140782        0.00544027        0.00074894
     127         -0.731239        2.000000        0.00202934        0.00000000        0.00153804        0.00259223        0.00000000        0.00000000        0.00140782        0.00544027        0.00074894
     128         -0.731237        2.000000        0.00036339        0.00000000        0.00052895        0.00499888        0.00000000        0.00000000        0.00378128        0.00340272        0.00109720
     129         -0.731237        2.000000        0.00036339        0.00000000        0.00052895        0.00499888        0.00000000        0.00000000        0.00378128        0.00340271        0.00109720
     130         -0.731236        2.000000        0.00016699        0.00151371        0.00060055        0.00035803        0.00589325        0.00208684        0.00080757        0.00218373        0.00018081
     131         -0.731236        2.000000        0.00016699        0.00151371        0.00060055        0.00035803        0.00589325        0.00208684        0.00080757        0.00218373        0.00018081
     132         -0.731236        2.000000        0.00016699        0.00151371        0.00060055        0.00035803        0.00589325        0.00208684        0.00080757        0.00218373        0.00018081
     133         -0.731236        2.000000        0.00016699        0.00151371        0.00060055        0.00035803        0.00589325        0.00208684        0.00080757        0.00218373        0.00018081
     134         -0.731233        2.000000        0.00103167        0.00070115        0.00118246        0.00134012        0.00218231        0.00077998        0.00140437        0.00487990        0.00031697
     135         -0.731233        2.000000        0.00103167        0.00070115        0.00118246        0.00134012        0.00218231        0.00077998        0.00140437        0.00487990        0.00031697
     136         -0.731233        2.000000        0.00103167        0.00070115        0.00118246        0.00134012        0.00218231        0.00077998        0.00140437        0.00487990        0.00031697
     137         -0.731233        2.000000        0.00103167        0.00070115        0.00118246        0.00134012        0.00218231        0.00077998        0.00140437        0.00487990        0.00031697
     138         -0.731233        2.000000        0.00014908        0.00152775        0.00061677        0.00036582        0.00600112        0.00200096        0.00069773        0.00219384        0.00020987
     139         -0.731233        2.000000        0.00014908        0.00152775        0.00061677        0.00036582        0.00600112        0.00200096        0.00069773        0.00219384        0.00020987
     140         -0.731233        2.000000        0.00014908        0.00152775        0.00061677        0.00036582        0.00600112        0.00200096        0.00069773        0.00219384        0.00020987
     141         -0.731233        2.000000        0.00014908        0.00152775        0.00061677        0.00036582        0.00600112        0.00200096        0.00069773        0.00219384        0.00020987
     142         -0.731230        2.000000        0.00112444        0.00079193        0.00121510        0.00135000        0.00212654        0.00080186        0.00113899        0.00477924        0.00038550
     143         -0.731230        2.000000        0.00112444        0.00079193        0.00121510        0.00135000        0.00212654        0.00080186        0.00113899        0.00477925        0.00038550
     144         -0.731230        2.000000        0.00112444        0.00079193        0.00121510        0.00135000        0.00212654        0.00080186        0.00113899        0.00477924        0.00038550