# Projected DOS for atomic kind Cs_2 at iteration step i = 0, E(Fermi) =     0.092883 a.u.
#     MO Eigenvalue [a.u.]      Occupation                 s                py                pz                px               d-2               d-1                d0               d+1               d+2
       1         -0.731804        2.000000        0.22724753        0.00000000        0.00016491        0.00000754        0.00000000        0.00000000        0.00003599        0.00003401        0.00002138
       2         -0.731732        2.000000        0.22454149        0.00000000        0.00184894        0.00001142        0.00000000        0.00000000        0.00063186        0.00004308        0.00046007
       3         -0.731732        2.000000        0.22454149        0.00000000        0.00184894        0.00001142        0.00000000        0.00000000        0.00063186        0.00004308        0.00046007
       4         -0.731709        2.000000        0.22380351        0.00210430        0.00006590        0.00000820        0.00000180        0.00045604        0.00000507        0.00003943        0.00079289
       5         -0.731709        2.000000        0.22380351        0.00210430        0.00006590        0.00000820        0.00000180        0.00045604        0.00000507        0.00003943        0.00079289
       6         -0.731680        2.000000        0.22708612        0.00000000        0.00039424        0.00262371        0.00000000        0.00000000        0.00003169        0.00071810        0.00046602
       7         -0.731677        2.000000        0.22367713        0.00000000        0.00038553        0.00264288        0.00000000        0.00000000        0.00002885        0.00074407        0.00044536
       8         -0.731651        2.000000        0.22231712        0.00158510        0.00113206        0.00001195        0.00000125        0.00083380        0.00027625        0.00003181        0.00112553
       9         -0.731651        2.000000        0.22231713        0.00158510        0.00113206        0.00001195        0.00000125        0.00083380        0.00027625        0.00003181        0.00112553
      10         -0.731651        2.000000        0.22231712        0.00158510        0.00113206        0.00001195        0.00000125        0.00083380        0.00027625        0.00003181        0.00112553
      11         -0.731651        2.000000        0.22231713        0.00158510        0.00113206        0.00001195        0.00000125        0.00083380        0.00027625        0.00003181        0.00112553
      12         -0.731626        2.000000        0.22710576        0.00000000        0.00132248        0.00210254        0.00000000        0.00000000        0.00021747        0.00106525        0.00072497
      13         -0.731626        2.000000        0.22710576        0.00000000        0.00132248        0.00210254        0.00000000        0.00000000        0.00021747        0.00106525        0.00072497
      14         -0.731623        2.000000        0.22197983        0.00000000        0.00130808        0.00212844        0.00000000        0.00000000        0.00022131        0.00110992        0.00069758
      15         -0.731623        2.000000        0.22197983        0.00000000        0.00130808        0.00212844        0.00000000        0.00000000        0.00022131        0.00110992        0.00069758
      16         -0.731603        2.000000        0.22559090        0.00159754        0.00021757        0.00208067        0.00011554        0.00050652        0.00013680        0.00067436        0.00000670
      17         -0.731603        2.000000        0.22559090        0.00159754        0.00021757        0.00208067        0.00011554        0.00050652        0.00013680        0.00067436        0.00000670
      18         -0.731600        2.000000        0.22165344        0.00157608        0.00021005        0.00210026        0.00011504        0.00050082        0.00013164        0.00070094        0.00000733
      19         -0.731600        2.000000        0.22165344        0.00157608        0.00021005        0.00210026        0.00011504        0.00050082        0.00013164        0.00070094        0.00000733
      20         -0.731569        2.000000        0.21979078        0.00000000        0.00297697        0.00002924        0.00000000        0.00000000        0.00267745        0.00013813        0.00127901
      21         -0.731569        2.000000        0.21979077        0.00000000        0.00297697        0.00002924        0.00000000        0.00000000        0.00267745        0.00013813        0.00127901
      22         -0.731559        2.000000        0.22653859        0.00129551        0.00080623        0.00171594        0.00007410        0.00073900        0.00017577        0.00089851        0.00023577
      23         -0.731559        2.000000        0.22653860        0.00129551        0.00080623        0.00171594        0.00007410        0.00073900        0.00017577        0.00089851        0.00023577
      24         -0.731559        2.000000        0.22653859        0.00129551        0.00080623        0.00171594        0.00007410        0.00073900        0.00017577        0.00089851        0.00023577
      25         -0.731559        2.000000        0.22653860        0.00129551        0.00080623        0.00171594        0.00007410        0.00073900        0.00017577        0.00089851        0.00023577
      26         -0.731556        2.000000        0.22066860        0.00126364        0.00079574        0.00174534        0.00007370        0.00072588        0.00017524        0.00093799        0.00024034
      27         -0.731556        2.000000        0.22066860        0.00126364        0.00079574        0.00174534        0.00007370        0.00072588        0.00017524        0.00093799        0.00024034
      28         -0.731556        2.000000        0.22066860        0.00126364        0.00079574        0.00174534        0.00007370        0.00072588        0.00017524        0.00093799        0.00024034
      29         -0.731556        2.000000        0.22066860        0.00126364        0.00079574        0.00174534        0.00007370        0.00072588        0.00017524        0.00093799        0.00024034
      30         -0.731523        2.000000        0.21981100        0.00175271        0.00004745        0.00000655        0.00000973        0.00134711        0.00005085        0.00002610        0.00403692
      31         -0.731523        2.000000        0.21981101        0.00175271        0.00004745        0.00000655        0.00000973        0.00134711        0.00005085        0.00002610        0.00403692
      32         -0.731518        2.000000        0.21901319        0.00067764        0.00195203        0.00002353        0.00000573        0.00101674        0.00141153        0.00007100        0.00178606
      33         -0.731518        2.000000        0.21901319        0.00067764        0.00195203        0.00002353        0.00000573        0.00101674        0.00141153        0.00007100        0.00178606
      34         -0.731518        2.000000        0.21901319        0.00067764        0.00195203        0.00002353        0.00000573        0.00101674        0.00141153        0.00007100        0.00178606
      35         -0.731518        2.000000        0.21901319        0.00067764        0.00195203        0.00002353        0.00000573        0.00101674        0.00141153        0.00007100        0.00178606
      36         -0.731511        2.000000        0.21860845        0.00000000        0.00182269        0.00151414        0.00000000        0.00000000        0.00095204        0.00140613        0.00172198
      37         -0.731511        2.000000        0.21860846        0.00000000        0.00182269        0.00151414        0.00000000        0.00000000        0.00095204        0.00140613        0.00172198
      38         -0.731508        2.000000        0.22122647        0.00000000        0.00181801        0.00149207        0.00000000        0.00000000        0.00093355        0.00138088        0.00174065
      39         -0.731508        2.000000        0.22122649        0.00000000        0.00181801        0.00149207        0.00000000        0.00000000        0.00093355        0.00138088        0.00174065
      40         -0.731498        2.000000        0.21977796        0.00128202        0.00025964        0.00000792        0.00000494        0.00196878        0.00005142        0.00001831        0.00405320
      41         -0.731498        2.000000        0.21977798        0.00128202        0.00025964        0.00000792        0.00000494        0.00196878        0.00005142        0.00001831        0.00405320
      42         -0.731498        2.000000        0.21977799        0.00128202        0.00025964        0.00000792        0.00000494        0.00196878        0.00005142        0.00001831        0.00405320
      43         -0.731498        2.000000        0.21977802        0.00128202        0.00025964        0.00000792        0.00000494        0.00196878        0.00005142        0.00001831        0.00405320
      44         -0.731464        2.000000        0.21810142        0.00079947        0.00119138        0.00131620        0.00003313        0.00080177        0.00062264        0.00115163        0.00085431
      45         -0.731464        2.000000        0.21810143        0.00079947        0.00119138        0.00131620        0.00003313        0.00080177        0.00062264        0.00115163        0.00085431
      46         -0.731464        2.000000        0.21810143        0.00079947        0.00119138        0.00131620        0.00003313        0.00080177        0.00062264        0.00115163        0.00085431
      47         -0.731464        2.000000        0.21810144        0.00079947        0.00119138        0.00131620        0.00003313        0.00080177        0.00062264        0.00115163        0.00085431
      48         -0.731461        2.000000        0.22080018        0.00082701        0.00118422        0.00129971        0.00003215        0.00080626        0.00061616        0.00112538        0.00084596
      49         -0.731461        2.000000        0.22080019        0.00082701        0.00118422        0.00129971        0.00003215        0.00080626        0.00061616        0.00112538        0.00084596
      50         -0.731461        2.000000        0.22080018        0.00082701        0.00118422        0.00129971        0.00003215        0.00080626        0.00061616        0.00112538        0.00084596
      51         -0.731461        2.000000        0.22080019        0.00082701        0.00118422        0.00129971        0.00003215        0.00080626        0.00061616        0.00112538        0.00084596
      52         -0.731450        2.000000        0.22006223        0.00000000        0.00201627        0.00010694        0.00000000        0.00000000        0.00497691        0.00033150        0.00075124
      53         -0.731449        2.000000        0.22450439        0.00141244        0.00002507        0.00129186        0.00008494        0.00139874        0.00021032        0.00059092        0.00154083
      54         -0.731449        2.000000        0.22450440        0.00141244        0.00002507        0.00129186        0.00008494        0.00139874        0.00021032        0.00059092        0.00154083
      55         -0.731446        2.000000        0.21938832        0.00138607        0.00002234        0.00131024        0.00008189        0.00137702        0.00020219        0.00061875        0.00154455
      56         -0.731446        2.000000        0.21938833        0.00138607        0.00002234        0.00131024        0.00008189        0.00137702        0.00020219        0.00061875        0.00154455
      57         -0.731445        2.000000        0.21951154        0.00050046        0.00049171        0.00001050        0.00000890        0.00216563        0.00015040        0.00000796        0.00424757
      58         -0.731445        2.000000        0.21951153        0.00050046        0.00049171        0.00001050        0.00000890        0.00216563        0.00015040        0.00000796        0.00424757
      59         -0.731445        2.000000        0.21951153        0.00050046        0.00049171        0.00001050        0.00000890        0.00216563        0.00015040        0.00000796        0.00424757
      60         -0.731445        2.000000        0.21951153        0.00050046        0.00049171        0.00001050        0.00000890        0.00216563        0.00015040        0.00000796        0.00424757
      61         -0.731436        2.000000        0.21912027        0.00000000        0.00137388        0.00188317        0.00000000        0.00000000        0.00051826        0.00091781        0.00420554
      62         -0.731433        2.000000        0.22277777        0.00000000        0.00140331        0.00181866        0.00000000        0.00000000        0.00065206        0.00085823        0.00412824
      63         -0.731429        2.000000        0.22620619        0.00110311        0.00014122        0.00117387        0.00005451        0.00180501        0.00015949        0.00063211        0.00158281
      64         -0.731429        2.000000        0.22620622        0.00110311        0.00014122        0.00117387        0.00005451        0.00180501        0.00015949        0.00063211        0.00158281
      65         -0.731429        2.000000        0.22620621        0.00110311        0.00014122        0.00117387        0.00005451        0.00180501        0.00015949        0.00063211        0.00158281
      66         -0.731429        2.000000        0.22620624        0.00110311        0.00014122        0.00117387        0.00005451        0.00180501        0.00015949        0.00063211        0.00158281
      67         -0.731426        2.000000        0.21821280        0.00105828        0.00013985        0.00119264        0.00004899        0.00176625        0.00015346        0.00068109        0.00159715
      68         -0.731426        2.000000        0.21821282        0.00105828        0.00013985        0.00119264        0.00004899        0.00176625        0.00015346        0.00068109        0.00159716
      69         -0.731426        2.000000        0.21821282        0.00105828        0.00013985        0.00119264        0.00004899        0.00176625        0.00015346        0.00068109        0.00159716
      70         -0.731426        2.000000        0.21821284        0.00105828        0.00013985        0.00119264        0.00004899        0.00176625        0.00015346        0.00068109        0.00159716
      71         -0.731423        2.000000        0.21982281        0.00005637        0.00147589        0.00004557        0.00001847        0.00072069        0.00263118        0.00016381        0.00180177
      72         -0.731423        2.000000        0.21982281        0.00005637        0.00147589        0.00004557        0.00001847        0.00072069        0.00263118        0.00016381        0.00180177
      73         -0.731413        2.000000        0.21888003        0.00011323        0.00052558        0.00001114        0.00002542        0.00159171        0.00018875        0.00000672        0.00453542
      74         -0.731413        2.000000        0.21888002        0.00011323        0.00052558        0.00001114        0.00002542        0.00159171        0.00018875        0.00000672        0.00453542
      75         -0.731394        2.000000        0.21862054        0.00091112        0.00096171        0.00158999        0.00006678        0.00063616        0.00070636        0.00084797        0.00187206
      76         -0.731394        2.000000        0.21862055        0.00091112        0.00096171        0.00158999        0.00006678        0.00063616        0.00070636        0.00084797        0.00187206
      77         -0.731391        2.000000        0.22296224        0.00092737        0.00097656        0.00156494        0.00006852        0.00063876        0.00072042        0.00080239        0.00187292
      78         -0.731391        2.000000        0.22296224        0.00092737        0.00097656        0.00156494        0.00006852        0.00063876        0.00072042        0.00080239        0.00187292
      79         -0.731386        2.000000        0.22058024        0.00054059        0.00026035        0.00105613        0.00002120        0.00189754        0.00014216        0.00070054        0.00172773
      80         -0.731386        2.000000        0.22058025        0.00054059        0.00026035        0.00105613        0.00002120        0.00189754        0.00014216        0.00070054        0.00172773
      81         -0.731386        2.000000        0.22058023        0.00054059        0.00026035        0.00105613        0.00002120        0.00189754        0.00014216        0.00070054        0.00172773
      82         -0.731386        2.000000        0.22058024        0.00054059        0.00026035        0.00105613        0.00002120        0.00189754        0.00014216        0.00070054        0.00172773
      83         -0.731383        2.000000        0.21930756        0.00056304        0.00025327        0.00105904        0.00001845        0.00189316        0.00014458        0.00070306        0.00170962
      84         -0.731383        2.000000        0.21930757        0.00056304        0.00025327        0.00105904        0.00001845        0.00189316        0.00014458        0.00070306        0.00170962
      85         -0.731383        2.000000        0.21930754        0.00056304        0.00025327        0.00105904        0.00001845        0.00189316        0.00014458        0.00070306        0.00170962
      86         -0.731383        2.000000        0.21930755        0.00056304        0.00025327        0.00105904        0.00001845        0.00189316        0.00014458        0.00070306        0.00170962
      87         -0.731373        2.000000        0.22476507        0.00000000        0.00143663        0.00120553        0.00000000        0.00000000        0.00322503        0.00104306        0.00004394
      88         -0.731370        2.000000        0.22002510        0.00000000        0.00142811        0.00121902        0.00000000        0.00000000        0.00317662        0.00105906        0.00007069
      89         -0.731354        2.000000        0.22511098        0.00002841        0.00099317        0.00110415        0.00003151        0.00067578        0.00153186        0.00086765        0.00051114
      90         -0.731354        2.000000        0.22511098        0.00002841        0.00099317        0.00110415        0.00003151        0.00067578        0.00153186        0.00086765        0.00051114
      91         -0.731353        2.000000        0.22516969        0.00011529        0.00028134        0.00101251        0.00003141        0.00155299        0.00002741        0.00061521        0.00208764
      92         -0.731353        2.000000        0.22516969        0.00011529        0.00028134        0.00101251        0.00003141        0.00155299        0.00002741        0.00061521        0.00208764
      93         -0.731352        2.000000        0.21993102        0.00002964        0.00098852        0.00112200        0.00003141        0.00066238        0.00150660        0.00088767        0.00053016
      94         -0.731352        2.000000        0.21993102        0.00002964        0.00098852        0.00112200        0.00003141        0.00066238        0.00150660        0.00088767        0.00053016
      95         -0.731350        2.000000        0.21879504        0.00011270        0.00027660        0.00103072        0.00002563        0.00152576        0.00003081        0.00064607        0.00208011
      96         -0.731350        2.000000        0.21879504        0.00011270        0.00027660        0.00103072        0.00002563        0.00152576        0.00003081        0.00064607        0.00208011
      97         -0.731318        2.000000        0.22744849        0.00000000        0.00135584        0.00162169        0.00000000        0.00000000        0.00168150        0.00068647        0.00173004
      98         -0.731318        2.000000        0.22744851        0.00000000        0.00135584        0.00162169        0.00000000        0.00000000        0.00168150        0.00068647        0.00173004
      99         -0.731315        2.000000        0.22259068        0.00000000        0.00134626        0.00164596        0.00000000        0.00000000        0.00165114        0.00069082        0.00176124
     100         -0.731315        2.000000        0.22259071        0.00000000        0.00134626        0.00164596        0.00000000        0.00000000        0.00165114        0.00069082        0.00176124
     101         -0.731315        2.000000        0.22154712        0.00000000        0.00228475        0.00001654        0.00000000        0.00000000        0.00082199        0.00008088        0.00684049
     102         -0.731299        2.000000        0.21761000        0.00092855        0.00026930        0.00115414        0.00004620        0.00154341        0.00073760        0.00071599        0.00005174
     103         -0.731299        2.000000        0.21761001        0.00092855        0.00026930        0.00115414        0.00004620        0.00154341        0.00073760        0.00071599        0.00005174
     104         -0.731298        2.000000        0.22788311        0.00018837        0.00088994        0.00141611        0.00005981        0.00070014        0.00087225        0.00062895        0.00097436
     105         -0.731298        2.000000        0.22788311        0.00018837        0.00088994        0.00141611        0.00005981        0.00070014        0.00087225        0.00062895        0.00097436
     106         -0.731298        2.000000        0.22788311        0.00018837        0.00088994        0.00141611        0.00005981        0.00070014        0.00087225        0.00062895        0.00097436
     107         -0.731298        2.000000        0.22788312        0.00018837        0.00088994        0.00141611        0.00005981        0.00070014        0.00087225        0.00062895        0.00097436
     108         -0.731296        2.000000        0.22325697        0.00095306        0.00026939        0.00113152        0.00004659        0.00157207        0.00074986        0.00068099        0.00004688
     109         -0.731296        2.000000        0.22325698        0.00095306        0.00026939        0.00113152        0.00004659        0.00157207        0.00074986        0.00068099        0.00004688
     110         -0.731295        2.000000        0.22263216        0.00019514        0.00088763        0.00142863        0.00005799        0.00069150        0.00086786        0.00064955        0.00100007
     111         -0.731295        2.000000        0.22263217        0.00019514        0.00088763        0.00142863        0.00005799        0.00069150        0.00086786        0.00064955        0.00100007
     112         -0.731295        2.000000        0.22263216        0.00019514        0.00088763        0.00142863        0.00005799        0.00069150        0.00086786        0.00064955        0.00100007
     113         -0.731295        2.000000        0.22263217        0.00019514        0.00088763        0.00142863        0.00005799        0.00069150        0.00086786        0.00064955        0.00100007
     114         -0.731290        2.000000        0.22220205        0.00074269        0.00170513        0.00001018        0.00000762        0.00074017        0.00102899        0.00006131        0.00393641
     115         -0.731290        2.000000        0.22220205        0.00074269        0.00170513        0.00001018        0.00000762        0.00074017        0.00102899        0.00006131        0.00393641
     116         -0.731269        2.000000        0.22341205        0.00043836        0.00022116        0.00108212        0.00005696        0.00156524        0.00043036        0.00066023        0.00024981
     117         -0.731269        2.000000        0.22341207        0.00043836        0.00022116        0.00108212        0.00005696        0.00156524        0.00043036        0.00066023        0.00024981
     118         -0.731269        2.000000        0.22341206        0.00043836        0.00022116        0.00108212        0.00005696        0.00156524        0.00043036        0.00066023        0.00024981
     119         -0.731269        2.000000        0.22341208        0.00043836        0.00022116        0.00108212        0.00005696        0.00156524        0.00043036        0.00066023        0.00024981
     120         -0.731266        2.000000        0.22304358        0.00045496        0.00022403        0.00107870        0.00005399        0.00156996        0.00044992        0.00065623        0.00025131
     121         -0.731266        2.000000        0.22304360        0.00045496        0.00022403        0.00107871        0.00005399        0.00156996        0.00044992        0.00065623        0.00025131
     122         -0.731266        2.000000        0.22304358        0.00045496        0.00022403        0.00107870        0.00005399        0.00156996        0.00044992        0.00065623        0.00025131
     123         -0.731266        2.000000        0.22304361        0.00045496        0.00022403        0.00107871        0.00005399        0.00156996        0.00044992        0.00065623        0.00025131
     124         -0.731242        2.000000        0.21766955        0.00000000        0.00098488        0.00126926        0.00000000        0.00000000        0.00087715        0.00084958        0.00157776
     125         -0.731242        2.000000        0.21766954        0.00000000        0.00098488        0.00126926        0.00000000        0.00000000        0.00087715        0.00084958        0.00157776
     126         -0.731239        2.000000        0.22216575        0.00000000        0.00093141        0.00130829        0.00000000        0.00000000        0.00109529        0.00057204        0.00187881
     127         -0.731239        2.000000        0.22216576        0.00000000        0.00093141        0.00130829        0.00000000        0.00000000        0.00109529        0.00057204        0.00187881
     128         -0.731237        2.000000        0.22815297        0.00000000        0.00137766        0.00019870        0.00000000        0.00000000        0.00137571        0.00037354        0.00433423
     129         -0.731237        2.000000        0.22815295        0.00000000        0.00137766        0.00019869        0.00000000        0.00000000        0.00137572        0.00037354        0.00433423
     130         -0.731236        2.000000        0.21617422        0.00016975        0.00009121        0.00103906        0.00003432        0.00155112        0.00021984        0.00069582        0.00008567
     131         -0.731236        2.000000        0.21617420        0.00016975        0.00009121        0.00103906        0.00003432        0.00155112        0.00021984        0.00069582        0.00008567
     132         -0.731236        2.000000        0.21617420        0.00016975        0.00009121        0.00103906        0.00003432        0.00155112        0.00021984        0.00069582        0.00008567
     133         -0.731236        2.000000        0.21617417        0.00016975        0.00009121        0.00103906        0.00003432        0.00155112        0.00021984        0.00069582        0.00008567
     134         -0.731233        2.000000        0.21691573        0.00006392        0.00056928        0.00123051        0.00003484        0.00065779        0.00036304        0.00076782        0.00061080
     135         -0.731233        2.000000        0.21691572        0.00006392        0.00056928        0.00123051        0.00003484        0.00065779        0.00036304        0.00076782        0.00061080
     136         -0.731233        2.000000        0.21691572        0.00006392        0.00056928        0.00123051        0.00003484        0.00065779        0.00036304        0.00076782        0.00061080
     137         -0.731233        2.000000        0.21691572        0.00006392        0.00056928        0.00123051        0.00003484        0.00065779        0.00036304        0.00076782        0.00061080
     138         -0.731233        2.000000        0.22515714        0.00016413        0.00008977        0.00100875        0.00003812        0.00159989        0.00021312        0.00064992        0.00008610
     139         -0.731233        2.000000        0.22515711        0.00016413        0.00008977        0.00100875        0.00003812        0.00159989        0.00021312        0.00064992        0.00008610
     140         -0.731233        2.000000        0.22515712        0.00016413        0.00008977        0.00100875        0.00003812        0.00159989        0.00021312        0.00064992        0.00008610
     141         -0.731233        2.000000        0.22515709        0.00016413        0.00008977        0.00100875        0.00003812        0.00159989        0.00021312        0.00064992        0.00008610
     142         -0.731230        2.000000        0.22472280        0.00006355        0.00056960        0.00123805        0.00004089        0.00065498        0.00040287        0.00067188        0.00060267
     143         -0.731230        2.000000        0.22472280        0.00006355        0.00056960        0.00123805        0.00004089        0.00065498        0.00040287        0.00067188        0.00060267
     144         -0.731230        2.000000        0.22472280        0.00006355        0.00056960        0.00123805        0.00004089        0.00065498        0.00040287        0.00067188        0.00060267