# Projected DOS for atomic kind Cs_3 at iteration step i = 0, E(Fermi) =     0.092883 a.u.
#     MO Eigenvalue [a.u.]      Occupation                 s                py                pz                px               d-2               d-1                d0               d+1               d+2
       1         -0.731804        2.000000        0.02086339        0.00000000        0.00018983        0.00076624        0.00000000        0.00000000        0.00008902        0.00027145        0.00003443
       2         -0.731732        2.000000        0.01541468        0.00000000        0.00469296        0.00097668        0.00000000        0.00000000        0.00044142        0.00031118        0.00038296
       3         -0.731732        2.000000        0.01541468        0.00000000        0.00469296        0.00097668        0.00000000        0.00000000        0.00044142        0.00031118        0.00038296
       4         -0.731709        2.000000        0.01381754        0.00459089        0.00000794        0.00060157        0.00015916        0.00170925        0.00030914        0.00024534        0.00021647
       5         -0.731709        2.000000        0.01381754        0.00459089        0.00000794        0.00060157        0.00015916        0.00170925        0.00030914        0.00024534        0.00021647
       6         -0.731680        2.000000        0.01319223        0.00000000        0.00021954        0.00573378        0.00000000        0.00000000        0.00102825        0.00032605        0.00016909
       7         -0.731677        2.000000        0.01318844        0.00000000        0.00021367        0.00579063        0.00000000        0.00000000        0.00104254        0.00034937        0.00015647
       8         -0.731651        2.000000        0.01011771        0.00386503        0.00334400        0.00075920        0.00022037        0.00213461        0.00042499        0.00025201        0.00049711
       9         -0.731651        2.000000        0.01011771        0.00386503        0.00334400        0.00075920        0.00022037        0.00213461        0.00042499        0.00025201        0.00049711
      10         -0.731651        2.000000        0.01011771        0.00386503        0.00334400        0.00075920        0.00022037        0.00213461        0.00042499        0.00025201        0.00049711
      11         -0.731651        2.000000        0.01011771        0.00386503        0.00334400        0.00075920        0.00022037        0.00213461        0.00042499        0.00025201        0.00049711
      12         -0.731626        2.000000        0.00949556        0.00000000        0.00381722        0.00498331        0.00000000        0.00000000        0.00077393        0.00142447        0.00034003
      13         -0.731626        2.000000        0.00949557        0.00000000        0.00381722        0.00498331        0.00000000        0.00000000        0.00077393        0.00142447        0.00034003
      14         -0.731623        2.000000        0.00956048        0.00000000        0.00370625        0.00509960        0.00000000        0.00000000        0.00078809        0.00140494        0.00032600
      15         -0.731623        2.000000        0.00956048        0.00000000        0.00370625        0.00509960        0.00000000        0.00000000        0.00078809        0.00140494        0.00032600
      16         -0.731603        2.000000        0.00891138        0.00290217        0.00003402        0.00388782        0.00174181        0.00139773        0.00103382        0.00029816        0.00011910
      17         -0.731603        2.000000        0.00891138        0.00290217        0.00003402        0.00388782        0.00174181        0.00139773        0.00103382        0.00029816        0.00011910
      18         -0.731600        2.000000        0.00891302        0.00290092        0.00002666        0.00393525        0.00175952        0.00139392        0.00104149        0.00032641        0.00011075
      19         -0.731600        2.000000        0.00891302        0.00290092        0.00002666        0.00393525        0.00175952        0.00139392        0.00104149        0.00032641        0.00011075
      20         -0.731569        2.000000        0.00637871        0.00000000        0.00985131        0.00139288        0.00000000        0.00000000        0.00226162        0.00017399        0.00103703
      21         -0.731569        2.000000        0.00637871        0.00000000        0.00985131        0.00139288        0.00000000        0.00000000        0.00226162        0.00017399        0.00103703
      22         -0.731559        2.000000        0.00634369        0.00243578        0.00272839        0.00340126        0.00162327        0.00171905        0.00069975        0.00109534        0.00030916
      23         -0.731559        2.000000        0.00634369        0.00243578        0.00272839        0.00340126        0.00162327        0.00171905        0.00069975        0.00109534        0.00030916
      24         -0.731559        2.000000        0.00634369        0.00243578        0.00272839        0.00340126        0.00162327        0.00171905        0.00069975        0.00109534        0.00030916
      25         -0.731559        2.000000        0.00634369        0.00243578        0.00272839        0.00340126        0.00162327        0.00171905        0.00069975        0.00109534        0.00030916
      26         -0.731556        2.000000        0.00640902        0.00244455        0.00262976        0.00348784        0.00165430        0.00169788        0.00071213        0.00109606        0.00029695
      27         -0.731556        2.000000        0.00640902        0.00244455        0.00262976        0.00348783        0.00165430        0.00169788        0.00071213        0.00109606        0.00029695
      28         -0.731556        2.000000        0.00640903        0.00244455        0.00262976        0.00348783        0.00165430        0.00169788        0.00071213        0.00109606        0.00029695
      29         -0.731556        2.000000        0.00640903        0.00244455        0.00262976        0.00348783        0.00165430        0.00169788        0.00071213        0.00109606        0.00029695
      30         -0.731523        2.000000        0.00364532        0.00843441        0.00062535        0.00025595        0.00040479        0.00510133        0.00101265        0.00016729        0.00070545
      31         -0.731523        2.000000        0.00364532        0.00843441        0.00062535        0.00025595        0.00040479        0.00510133        0.00101265        0.00016729        0.00070545
      32         -0.731518        2.000000        0.00398173        0.00266981        0.00734807        0.00101254        0.00039149        0.00256359        0.00176251        0.00010167        0.00101426
      33         -0.731518        2.000000        0.00398173        0.00266981        0.00734807        0.00101254        0.00039149        0.00256359        0.00176251        0.00010167        0.00101426
      34         -0.731518        2.000000        0.00398173        0.00266981        0.00734807        0.00101254        0.00039149        0.00256359        0.00176251        0.00010167        0.00101426
      35         -0.731518        2.000000        0.00398173        0.00266981        0.00734807        0.00101254        0.00039149        0.00256359        0.00176251        0.00010167        0.00101426
      36         -0.731511        2.000000        0.00386611        0.00000000        0.00659042        0.00513569        0.00000000        0.00000000        0.00168764        0.00228561        0.00071869
      37         -0.731511        2.000000        0.00386611        0.00000000        0.00659042        0.00513569        0.00000000        0.00000000        0.00168764        0.00228561        0.00071869
      38         -0.731508        2.000000        0.00381848        0.00000000        0.00670107        0.00501027        0.00000000        0.00000000        0.00171958        0.00233082        0.00072753
      39         -0.731508        2.000000        0.00381848        0.00000000        0.00670107        0.00501027        0.00000000        0.00000000        0.00171958        0.00233082        0.00072753
      40         -0.731498        2.000000        0.00258214        0.00765490        0.00176624        0.00029563        0.00047114        0.00556023        0.00078977        0.00012100        0.00074780
      41         -0.731498        2.000000        0.00258214        0.00765490        0.00176624        0.00029563        0.00047114        0.00556023        0.00078976        0.00012100        0.00074780
      42         -0.731498        2.000000        0.00258214        0.00765490        0.00176624        0.00029563        0.00047114        0.00556023        0.00078976        0.00012100        0.00074780
      43         -0.731498        2.000000        0.00258214        0.00765490        0.00176624        0.00029563        0.00047114        0.00556023        0.00078976        0.00012100        0.00074780
      44         -0.731464        2.000000        0.00253678        0.00154668        0.00496000        0.00347824        0.00181198        0.00178703        0.00126899        0.00173556        0.00065994
      45         -0.731464        2.000000        0.00253678        0.00154668        0.00496000        0.00347824        0.00181198        0.00178703        0.00126899        0.00173556        0.00065994
      46         -0.731464        2.000000        0.00253678        0.00154668        0.00496000        0.00347824        0.00181198        0.00178703        0.00126898        0.00173556        0.00065994
      47         -0.731464        2.000000        0.00253678        0.00154668        0.00496000        0.00347824        0.00181198        0.00178703        0.00126898        0.00173556        0.00065994
      48         -0.731461        2.000000        0.00250743        0.00157598        0.00504111        0.00336089        0.00173940        0.00184456        0.00131162        0.00179650        0.00065812
      49         -0.731461        2.000000        0.00250743        0.00157598        0.00504111        0.00336089        0.00173940        0.00184456        0.00131162        0.00179650        0.00065812
      50         -0.731461        2.000000        0.00250743        0.00157598        0.00504111        0.00336089        0.00173940        0.00184456        0.00131162        0.00179650        0.00065812
      51         -0.731461        2.000000        0.00250743        0.00157598        0.00504111        0.00336089        0.00173940        0.00184456        0.00131162        0.00179650        0.00065812
      52         -0.731450        2.000000        0.00269116        0.00000000        0.01105401        0.00038888        0.00000000        0.00000000        0.00317290        0.00002334        0.00123818
      53         -0.731449        2.000000        0.00243331        0.00564681        0.00042684        0.00113841        0.00354236        0.00406354        0.00117591        0.00042708        0.00031815
      54         -0.731449        2.000000        0.00243331        0.00564681        0.00042684        0.00113841        0.00354236        0.00406354        0.00117591        0.00042708        0.00031815
      55         -0.731446        2.000000        0.00243296        0.00565863        0.00041403        0.00115914        0.00357881        0.00405265        0.00117669        0.00047260        0.00031553
      56         -0.731446        2.000000        0.00243296        0.00565863        0.00041403        0.00115914        0.00357881        0.00405265        0.00117669        0.00047260        0.00031553
      57         -0.731445        2.000000        0.00084007        0.00667109        0.00321962        0.00025354        0.00058032        0.00600267        0.00121264        0.00004795        0.00087937
      58         -0.731445        2.000000        0.00084007        0.00667108        0.00321962        0.00025354        0.00058032        0.00600267        0.00121264        0.00004795        0.00087937
      59         -0.731445        2.000000        0.00084007        0.00667108        0.00321962        0.00025354        0.00058032        0.00600267        0.00121264        0.00004795        0.00087937
      60         -0.731445        2.000000        0.00084007        0.00667108        0.00321962        0.00025354        0.00058032        0.00600267        0.00121264        0.00004795        0.00087937
      61         -0.731436        2.000000        0.00300124        0.00000000        0.00028253        0.00919195        0.00000000        0.00000000        0.00403333        0.00045309        0.00118547
      62         -0.731433        2.000000        0.00288577        0.00000000        0.00059131        0.00894507        0.00000000        0.00000000        0.00400497        0.00041905        0.00119813
      63         -0.731429        2.000000        0.00167935        0.00517828        0.00132048        0.00096083        0.00335354        0.00440628        0.00084821        0.00070343        0.00036995
      64         -0.731429        2.000000        0.00167935        0.00517828        0.00132048        0.00096083        0.00335354        0.00440628        0.00084821        0.00070343        0.00036995
      65         -0.731429        2.000000        0.00167935        0.00517828        0.00132048        0.00096083        0.00335354        0.00440628        0.00084821        0.00070343        0.00036995
      66         -0.731429        2.000000        0.00167935        0.00517828        0.00132048        0.00096083        0.00335354        0.00440628        0.00084821        0.00070343        0.00036995
      67         -0.731426        2.000000        0.00171123        0.00517317        0.00128155        0.00101064        0.00348601        0.00430703        0.00082962        0.00070822        0.00037680
      68         -0.731426        2.000000        0.00171123        0.00517317        0.00128155        0.00101064        0.00348601        0.00430703        0.00082962        0.00070822        0.00037680
      69         -0.731426        2.000000        0.00171123        0.00517317        0.00128155        0.00101064        0.00348601        0.00430703        0.00082962        0.00070822        0.00037680
      70         -0.731426        2.000000        0.00171123        0.00517317        0.00128155        0.00101064        0.00348601        0.00430703        0.00082962        0.00070822        0.00037680
      71         -0.731423        2.000000        0.00131756        0.00242177        0.00859379        0.00010035        0.00022407        0.00280718        0.00275445        0.00002458        0.00114910
      72         -0.731423        2.000000        0.00131756        0.00242177        0.00859379        0.00010035        0.00022407        0.00280718        0.00275445        0.00002458        0.00114910
      73         -0.731413        2.000000        0.00005470        0.00664422        0.00365781        0.00002878        0.00045869        0.00614093        0.00186891        0.00007642        0.00096436
      74         -0.731413        2.000000        0.00005470        0.00664422        0.00365781        0.00002878        0.00045869        0.00614093        0.00186891        0.00007642        0.00096436
      75         -0.731394        2.000000        0.00215222        0.00066577        0.00011175        0.00647930        0.00308613        0.00069609        0.00313923        0.00031710        0.00085842
      76         -0.731394        2.000000        0.00215222        0.00066577        0.00011175        0.00647930        0.00308613        0.00069609        0.00313923        0.00031710        0.00085842
      77         -0.731391        2.000000        0.00204207        0.00060811        0.00017928        0.00644364        0.00313227        0.00066321        0.00315560        0.00028094        0.00086975
      78         -0.731391        2.000000        0.00204207        0.00060811        0.00017928        0.00644364        0.00313227        0.00066321        0.00315560        0.00028094        0.00086975
      79         -0.731386        2.000000        0.00059567        0.00446039        0.00230997        0.00069087        0.00342161        0.00446871        0.00094570        0.00099357        0.00049877
      80         -0.731386        2.000000        0.00059567        0.00446040        0.00230997        0.00069087        0.00342161        0.00446871        0.00094570        0.00099357        0.00049877
      81         -0.731386        2.000000        0.00059567        0.00446039        0.00230997        0.00069087        0.00342161        0.00446871        0.00094570        0.00099357        0.00049877
      82         -0.731386        2.000000        0.00059567        0.00446040        0.00230997        0.00069087        0.00342161        0.00446871        0.00094570        0.00099357        0.00049877
      83         -0.731383        2.000000        0.00055766        0.00455973        0.00229741        0.00066744        0.00326922        0.00458001        0.00098245        0.00107874        0.00048667
      84         -0.731383        2.000000        0.00055766        0.00455973        0.00229741        0.00066744        0.00326922        0.00458001        0.00098245        0.00107874        0.00048667
      85         -0.731383        2.000000        0.00055766        0.00455972        0.00229741        0.00066744        0.00326922        0.00458001        0.00098245        0.00107874        0.00048667
      86         -0.731383        2.000000        0.00055766        0.00455972        0.00229741        0.00066744        0.00326922        0.00458001        0.00098245        0.00107874        0.00048667
      87         -0.731373        2.000000        0.00218064        0.00000000        0.00811077        0.00025437        0.00000000        0.00000000        0.00239507        0.00376267        0.00088556
      88         -0.731370        2.000000        0.00206309        0.00000000        0.00798710        0.00033342        0.00000000        0.00000000        0.00249106        0.00384973        0.00086727
      89         -0.731354        2.000000        0.00111557        0.00185451        0.00620613        0.00008673        0.00083668        0.00214557        0.00208139        0.00287636        0.00078033
      90         -0.731354        2.000000        0.00111557        0.00185451        0.00620613        0.00008673        0.00083668        0.00214557        0.00208139        0.00287636        0.00078033
      91         -0.731353        2.000000        0.00004274        0.00470556        0.00264701        0.00005992        0.00282641        0.00468420        0.00153338        0.00127164        0.00055538
      92         -0.731353        2.000000        0.00004274        0.00470556        0.00264701        0.00005992        0.00282641        0.00468420        0.00153338        0.00127164        0.00055538
      93         -0.731352        2.000000        0.00100898        0.00177384        0.00611711        0.00014633        0.00094942        0.00206396        0.00217941        0.00295755        0.00076561
      94         -0.731352        2.000000        0.00100898        0.00177384        0.00611711        0.00014633        0.00094942        0.00206396        0.00217941        0.00295755        0.00076561
      95         -0.731350        2.000000        0.00003612        0.00482083        0.00258842        0.00006595        0.00274061        0.00473420        0.00152681        0.00135198        0.00054872
      96         -0.731350        2.000000        0.00003612        0.00482083        0.00258842        0.00006595        0.00274061        0.00473420        0.00152681        0.00135198        0.00054872
      97         -0.731318        2.000000        0.00306577        0.00000000        0.00121335        0.00358668        0.00000000        0.00000000        0.00300581        0.00337380        0.00092371
      98         -0.731318        2.000000        0.00306577        0.00000000        0.00121335        0.00358668        0.00000000        0.00000000        0.00300581        0.00337380        0.00092371
      99         -0.731315        2.000000        0.00312363        0.00000000        0.00122165        0.00350650        0.00000000        0.00000000        0.00291036        0.00344311        0.00093381
     100         -0.731315        2.000000        0.00312363        0.00000000        0.00122165        0.00350650        0.00000000        0.00000000        0.00291036        0.00344311        0.00093381
     101         -0.731315        2.000000        0.00019134        0.00000000        0.00035994        0.00839385        0.00000000        0.00000000        0.00599749        0.00034079        0.00188917
     102         -0.731299        2.000000        0.00065136        0.00137927        0.00010504        0.00199936        0.00702303        0.00177440        0.00155400        0.00058598        0.00038629
     103         -0.731299        2.000000        0.00065136        0.00137927        0.00010504        0.00199936        0.00702303        0.00177440        0.00155400        0.00058598        0.00038629
     104         -0.731298        2.000000        0.00187856        0.00106628        0.00082015        0.00253302        0.00218860        0.00090385        0.00254555        0.00255728        0.00062706
     105         -0.731298        2.000000        0.00187856        0.00106628        0.00082015        0.00253302        0.00218859        0.00090385        0.00254555        0.00255728        0.00062706
     106         -0.731298        2.000000        0.00187856        0.00106628        0.00082015        0.00253302        0.00218860        0.00090384        0.00254555        0.00255728        0.00062706
     107         -0.731298        2.000000        0.00187856        0.00106628        0.00082015        0.00253302        0.00218860        0.00090385        0.00254555        0.00255728        0.00062706
     108         -0.731296        2.000000        0.00063624        0.00151666        0.00009572        0.00199575        0.00679085        0.00192199        0.00150816        0.00054149        0.00039137
     109         -0.731296        2.000000        0.00063624        0.00151666        0.00009572        0.00199575        0.00679085        0.00192199        0.00150816        0.00054149        0.00039137
     110         -0.731295        2.000000        0.00195622        0.00113885        0.00083686        0.00245747        0.00212775        0.00093053        0.00239528        0.00259233        0.00064990
     111         -0.731295        2.000000        0.00195622        0.00113885        0.00083686        0.00245747        0.00212775        0.00093053        0.00239528        0.00259233        0.00064990
     112         -0.731295        2.000000        0.00195622        0.00113885        0.00083686        0.00245747        0.00212775        0.00093053        0.00239528        0.00259233        0.00064990
     113         -0.731295        2.000000        0.00195622        0.00113885        0.00083686        0.00245747        0.00212775        0.00093053        0.00239528        0.00259233        0.00064990
     114         -0.731290        2.000000        0.00016912        0.00002617        0.00020832        0.00610640        0.00301101        0.00027981        0.00450505        0.00009509        0.00152896
     115         -0.731290        2.000000        0.00016912        0.00002617        0.00020832        0.00610640        0.00301101        0.00027981        0.00450505        0.00009509        0.00152896
     116         -0.731269        2.000000        0.00043264        0.00165763        0.00028901        0.00111772        0.00634546        0.00197974        0.00127149        0.00126755        0.00030236
     117         -0.731269        2.000000        0.00043264        0.00165763        0.00028901        0.00111772        0.00634546        0.00197974        0.00127149        0.00126755        0.00030236
     118         -0.731269        2.000000        0.00043264        0.00165763        0.00028901        0.00111772        0.00634546        0.00197974        0.00127149        0.00126755        0.00030236
     119         -0.731269        2.000000        0.00043264        0.00165763        0.00028901        0.00111772        0.00634546        0.00197974        0.00127149        0.00126755        0.00030236
     120         -0.731266        2.000000        0.00041462        0.00184548        0.00028204        0.00111367        0.00612367        0.00210772        0.00114661        0.00127498        0.00031793
     121         -0.731266        2.000000        0.00041462        0.00184548        0.00028204        0.00111367        0.00612367        0.00210772        0.00114661        0.00127498        0.00031793
     122         -0.731266        2.000000        0.00041462        0.00184548        0.00028204        0.00111367        0.00612367        0.00210772        0.00114661        0.00127498        0.00031793
     123         -0.731266        2.000000        0.00041462        0.00184548        0.00028204        0.00111367        0.00612367        0.00210772        0.00114661        0.00127498        0.00031793
     124         -0.731242        2.000000        0.00186127        0.00000000        0.00154732        0.00231707        0.00000000        0.00000000        0.00148434        0.00614709        0.00059913
     125         -0.731242        2.000000        0.00186127        0.00000000        0.00154732        0.00231707        0.00000000        0.00000000        0.00148433        0.00614709        0.00059913
     126         -0.731239        2.000000        0.00118524        0.00000000        0.00132292        0.00265717        0.00000000        0.00000000        0.00225098        0.00632142        0.00048131
     127         -0.731239        2.000000        0.00118524        0.00000000        0.00132292        0.00265717        0.00000000        0.00000000        0.00225098        0.00632142        0.00048131
     128         -0.731237        2.000000        0.00082882        0.00000000        0.00065708        0.00498079        0.00000000        0.00000000        0.00335695        0.00286237        0.00124261
     129         -0.731237        2.000000        0.00082882        0.00000000        0.00065707        0.00498079        0.00000000        0.00000000        0.00335696        0.00286237        0.00124261
     130         -0.731236        2.000000        0.00014552        0.00152408        0.00060255        0.00033561        0.00607030        0.00193390        0.00072965        0.00230369        0.00019943
     131         -0.731236        2.000000        0.00014552        0.00152409        0.00060255        0.00033561        0.00607030        0.00193390        0.00072965        0.00230369        0.00019943
     132         -0.731236        2.000000        0.00014552        0.00152408        0.00060255        0.00033561        0.00607030        0.00193390        0.00072965        0.00230369        0.00019943
     133         -0.731236        2.000000        0.00014552        0.00152409        0.00060255        0.00033561        0.00607030        0.00193390        0.00072965        0.00230369        0.00019943
     134         -0.731233        2.000000        0.00107417        0.00077745        0.00119160        0.00129541        0.00216032        0.00076890        0.00120428        0.00497394        0.00035907
     135         -0.731233        2.000000        0.00107417        0.00077745        0.00119160        0.00129541        0.00216032        0.00076890        0.00120428        0.00497394        0.00035907
     136         -0.731233        2.000000        0.00107417        0.00077745        0.00119160        0.00129541        0.00216032        0.00076890        0.00120428        0.00497394        0.00035907
     137         -0.731233        2.000000        0.00107417        0.00077745        0.00119160        0.00129541        0.00216032        0.00076890        0.00120428        0.00497394        0.00035907
     138         -0.731233        2.000000        0.00015289        0.00152023        0.00061266        0.00036200        0.00599027        0.00200971        0.00072306        0.00219171        0.00020326
     139         -0.731233        2.000000        0.00015289        0.00152022        0.00061266        0.00036200        0.00599027        0.00200971        0.00072306        0.00219171        0.00020326
     140         -0.731233        2.000000        0.00015289        0.00152023        0.00061266        0.00036200        0.00599027        0.00200971        0.00072306        0.00219171        0.00020326
     141         -0.731233        2.000000        0.00015289        0.00152022        0.00061266        0.00036200        0.00599027        0.00200971        0.00072306        0.00219171        0.00020326
     142         -0.731230        2.000000        0.00098627        0.00069238        0.00117267        0.00134223        0.00222700        0.00074313        0.00136665        0.00495399        0.00032580
     143         -0.731230        2.000000        0.00098628        0.00069238        0.00117267        0.00134223        0.00222700        0.00074313        0.00136665        0.00495399        0.00032580
     144         -0.731230        2.000000        0.00098627        0.00069238        0.00117267        0.00134223        0.00222700        0.00074313        0.00136665        0.00495399        0.00032580