# Projected DOS for atomic kind Cs_1 at iteration step i = 0, E(Fermi) =     0.092883 a.u.
#     MO Eigenvalue [a.u.]      Occupation                 s                py                pz                px               d-2               d-1                d0               d+1               d+2
       1         -0.731804        2.000000        0.22579522        0.00000000        0.00016136        0.00000803        0.00000000        0.00000000        0.00003711        0.00003392        0.00002343
       2         -0.731732        2.000000        0.22256305        0.00000000        0.00184739        0.00001212        0.00000000        0.00000000        0.00063876        0.00004337        0.00046531
       3         -0.731732        2.000000        0.22256304        0.00000000        0.00184739        0.00001212        0.00000000        0.00000000        0.00063876        0.00004337        0.00046531
       4         -0.731709        2.000000        0.22207607        0.00209462        0.00006359        0.00000878        0.00000180        0.00045184        0.00000439        0.00003936        0.00080651
       5         -0.731709        2.000000        0.22207606        0.00209462        0.00006359        0.00000878        0.00000180        0.00045184        0.00000439        0.00003936        0.00080651
       6         -0.731680        2.000000        0.22098327        0.00000000        0.00037445        0.00268263        0.00000000        0.00000000        0.00002828        0.00073801        0.00042813
       7         -0.731677        2.000000        0.22435761        0.00000000        0.00038854        0.00263803        0.00000000        0.00000000        0.00002888        0.00074073        0.00044926
       8         -0.731651        2.000000        0.21996954        0.00157121        0.00113268        0.00001272        0.00000127        0.00082763        0.00028055        0.00003207        0.00114597
       9         -0.731651        2.000000        0.21996954        0.00157121        0.00113268        0.00001272        0.00000127        0.00082763        0.00028055        0.00003207        0.00114597
      10         -0.731651        2.000000        0.21996954        0.00157121        0.00113268        0.00001272        0.00000127        0.00082763        0.00028055        0.00003207        0.00114597
      11         -0.731651        2.000000        0.21996954        0.00157121        0.00113268        0.00001272        0.00000127        0.00082763        0.00028055        0.00003207        0.00114597
      12         -0.731626        2.000000        0.21786734        0.00000000        0.00129135        0.00217156        0.00000000        0.00000000        0.00022572        0.00111950        0.00067629
      13         -0.731626        2.000000        0.21786733        0.00000000        0.00129135        0.00217156        0.00000000        0.00000000        0.00022572        0.00111950        0.00067629
      14         -0.731623        2.000000        0.22296573        0.00000000        0.00130951        0.00212380        0.00000000        0.00000000        0.00022032        0.00110030        0.00070302
      15         -0.731623        2.000000        0.22296572        0.00000000        0.00130951        0.00212380        0.00000000        0.00000000        0.00022032        0.00110030        0.00070302
      16         -0.731603        2.000000        0.21850031        0.00155897        0.00020323        0.00213760        0.00011774        0.00048963        0.00012730        0.00069575        0.00000981
      17         -0.731603        2.000000        0.21850031        0.00155897        0.00020323        0.00213760        0.00011774        0.00048963        0.00012730        0.00069575        0.00000981
      18         -0.731600        2.000000        0.22240748        0.00158038        0.00021209        0.00209509        0.00011506        0.00050267        0.00013217        0.00069802        0.00000710
      19         -0.731600        2.000000        0.22240748        0.00158038        0.00021209        0.00209509        0.00011506        0.00050267        0.00013217        0.00069802        0.00000710
      20         -0.731569        2.000000        0.21957832        0.00000000        0.00296149        0.00002607        0.00000000        0.00000000        0.00266307        0.00013443        0.00128062
      21         -0.731569        2.000000        0.21957833        0.00000000        0.00296149        0.00002607        0.00000000        0.00000000        0.00266307        0.00013443        0.00128062
      22         -0.731559        2.000000        0.21579241        0.00123813        0.00078514        0.00178712        0.00007596        0.00070903        0.00017468        0.00094779        0.00024684
      23         -0.731559        2.000000        0.21579241        0.00123813        0.00078514        0.00178712        0.00007596        0.00070903        0.00017468        0.00094779        0.00024684
      24         -0.731559        2.000000        0.21579241        0.00123813        0.00078514        0.00178712        0.00007596        0.00070903        0.00017468        0.00094779        0.00024684
      25         -0.731559        2.000000        0.21579241        0.00123813        0.00078514        0.00178712        0.00007596        0.00070903        0.00017468        0.00094779        0.00024684
      26         -0.731556        2.000000        0.22163744        0.00126970        0.00079652        0.00173816        0.00007362        0.00072855        0.00017502        0.00093383        0.00023931
      27         -0.731556        2.000000        0.22163744        0.00126970        0.00079652        0.00173816        0.00007362        0.00072855        0.00017502        0.00093383        0.00023931
      28         -0.731556        2.000000        0.22163744        0.00126970        0.00079652        0.00173816        0.00007362        0.00072855        0.00017502        0.00093383        0.00023931
      29         -0.731556        2.000000        0.22163744        0.00126970        0.00079652        0.00173816        0.00007362        0.00072855        0.00017502        0.00093383        0.00023931
      30         -0.731523        2.000000        0.21722453        0.00173888        0.00004880        0.00000747        0.00000969        0.00132957        0.00004814        0.00002648        0.00405672
      31         -0.731523        2.000000        0.21722452        0.00173888        0.00004880        0.00000747        0.00000969        0.00132957        0.00004814        0.00002648        0.00405672
      32         -0.731518        2.000000        0.21890579        0.00068783        0.00193980        0.00001993        0.00000560        0.00101376        0.00140385        0.00006705        0.00178335
      33         -0.731518        2.000000        0.21890578        0.00068783        0.00193980        0.00001993        0.00000560        0.00101376        0.00140385        0.00006705        0.00178335
      34         -0.731518        2.000000        0.21890579        0.00068783        0.00193980        0.00001993        0.00000560        0.00101376        0.00140385        0.00006705        0.00178335
      35         -0.731518        2.000000        0.21890578        0.00068783        0.00193980        0.00001993        0.00000560        0.00101376        0.00140385        0.00006705        0.00178335
      36         -0.731511        2.000000        0.22314163        0.00000000        0.00181653        0.00148061        0.00000000        0.00000000        0.00092059        0.00136024        0.00174880
      37         -0.731511        2.000000        0.22314162        0.00000000        0.00181653        0.00148061        0.00000000        0.00000000        0.00092059        0.00136024        0.00174880
      38         -0.731508        2.000000        0.22052478        0.00000000        0.00181989        0.00149477        0.00000000        0.00000000        0.00093821        0.00139526        0.00173470
      39         -0.731508        2.000000        0.22052477        0.00000000        0.00181989        0.00149477        0.00000000        0.00000000        0.00093821        0.00139526        0.00173470
      40         -0.731498        2.000000        0.21660842        0.00126331        0.00026432        0.00000904        0.00000485        0.00194570        0.00005052        0.00001889        0.00407934
      41         -0.731498        2.000000        0.21660840        0.00126331        0.00026432        0.00000904        0.00000485        0.00194570        0.00005052        0.00001889        0.00407934
      42         -0.731498        2.000000        0.21660839        0.00126331        0.00026432        0.00000904        0.00000485        0.00194570        0.00005052        0.00001889        0.00407934
      43         -0.731498        2.000000        0.21660836        0.00126331        0.00026432        0.00000904        0.00000485        0.00194570        0.00005052        0.00001889        0.00407934
      44         -0.731464        2.000000        0.22284963        0.00084606        0.00118101        0.00129071        0.00003232        0.00080925        0.00060922        0.00110578        0.00083919
      45         -0.731464        2.000000        0.22284963        0.00084606        0.00118101        0.00129071        0.00003232        0.00080925        0.00060922        0.00110578        0.00083919
      46         -0.731464        2.000000        0.22284962        0.00084606        0.00118101        0.00129071        0.00003232        0.00080925        0.00060922        0.00110578        0.00083919
      47         -0.731464        2.000000        0.22284962        0.00084606        0.00118101        0.00129071        0.00003232        0.00080925        0.00060922        0.00110578        0.00083919
      48         -0.731461        2.000000        0.22014851        0.00081895        0.00118706        0.00129808        0.00003197        0.00080715        0.00061664        0.00114355        0.00084728
      49         -0.731461        2.000000        0.22014850        0.00081895        0.00118706        0.00129808        0.00003197        0.00080715        0.00061664        0.00114355        0.00084728
      50         -0.731461        2.000000        0.22014850        0.00081895        0.00118706        0.00129808        0.00003197        0.00080715        0.00061664        0.00114355        0.00084728
      51         -0.731461        2.000000        0.22014850        0.00081895        0.00118706        0.00129808        0.00003197        0.00080715        0.00061664        0.00114355        0.00084728
      52         -0.731450        2.000000        0.21809806        0.00000000        0.00201060        0.00010266        0.00000000        0.00000000        0.00496206        0.00032599        0.00077067
      53         -0.731449        2.000000        0.21457785        0.00136066        0.00002386        0.00134695        0.00008620        0.00133530        0.00019317        0.00061794        0.00155197
      54         -0.731449        2.000000        0.21457784        0.00136066        0.00002386        0.00134695        0.00008620        0.00133530        0.00019317        0.00061794        0.00155197
      55         -0.731446        2.000000        0.21966174        0.00138946        0.00002259        0.00130726        0.00008214        0.00137775        0.00020373        0.00061795        0.00154528
      56         -0.731446        2.000000        0.21966173        0.00138946        0.00002259        0.00130726        0.00008214        0.00137775        0.00020373        0.00061795        0.00154528
      57         -0.731445        2.000000        0.21617398        0.00050298        0.00048734        0.00001708        0.00000891        0.00213628        0.00014960        0.00001093        0.00425469
      58         -0.731445        2.000000        0.21617399        0.00050298        0.00048734        0.00001708        0.00000891        0.00213628        0.00014960        0.00001093        0.00425469
      59         -0.731445        2.000000        0.21617399        0.00050298        0.00048734        0.00001708        0.00000891        0.00213628        0.00014960        0.00001093        0.00425469
      60         -0.731445        2.000000        0.21617400        0.00050298        0.00048734        0.00001708        0.00000891        0.00213628        0.00014960        0.00001093        0.00425469
      61         -0.731436        2.000000        0.22547115        0.00000000        0.00139876        0.00182782        0.00000000        0.00000000        0.00051512        0.00088916        0.00424695
      62         -0.731433        2.000000        0.22169161        0.00000000        0.00139396        0.00182261        0.00000000        0.00000000        0.00066120        0.00087467        0.00411441
      63         -0.731429        2.000000        0.21286870        0.00102722        0.00014254        0.00123010        0.00005237        0.00171735        0.00014573        0.00068681        0.00160734
      64         -0.731429        2.000000        0.21286868        0.00102722        0.00014254        0.00123010        0.00005237        0.00171735        0.00014573        0.00068681        0.00160734
      65         -0.731429        2.000000        0.21286868        0.00102722        0.00014254        0.00123010        0.00005237        0.00171735        0.00014573        0.00068681        0.00160734
      66         -0.731429        2.000000        0.21286866        0.00102722        0.00014254        0.00123010        0.00005237        0.00171735        0.00014573        0.00068681        0.00160734
      67         -0.731426        2.000000        0.22083142        0.00107571        0.00014115        0.00119034        0.00005121        0.00177700        0.00015408        0.00066439        0.00158901
      68         -0.731426        2.000000        0.22083140        0.00107571        0.00014115        0.00119034        0.00005121        0.00177700        0.00015408        0.00066439        0.00158901
      69         -0.731426        2.000000        0.22083140        0.00107571        0.00014115        0.00119034        0.00005121        0.00177700        0.00015408        0.00066439        0.00158901
      70         -0.731426        2.000000        0.22083138        0.00107571        0.00014115        0.00119034        0.00005121        0.00177700        0.00015408        0.00066439        0.00158901
      71         -0.731423        2.000000        0.21754589        0.00005856        0.00147235        0.00004332        0.00001840        0.00071344        0.00262769        0.00016129        0.00182082
      72         -0.731423        2.000000        0.21754589        0.00005856        0.00147235        0.00004332        0.00001840        0.00071344        0.00262769        0.00016129        0.00182082
      73         -0.731413        2.000000        0.21672905        0.00011515        0.00052699        0.00000871        0.00002532        0.00157541        0.00019282        0.00000579        0.00454919
      74         -0.731413        2.000000        0.21672906        0.00011515        0.00052699        0.00000871        0.00002532        0.00157541        0.00019282        0.00000579        0.00454919
      75         -0.731394        2.000000        0.22607948        0.00095243        0.00098145        0.00153673        0.00006571        0.00065197        0.00070743        0.00081913        0.00187090
      76         -0.731394        2.000000        0.22607949        0.00095243        0.00098145        0.00153673        0.00006571        0.00065197        0.00070743        0.00081913        0.00187090
      77         -0.731391        2.000000        0.22174240        0.00092128        0.00096721        0.00156615        0.00006670        0.00063943        0.00073143        0.00081605        0.00186766
      78         -0.731391        2.000000        0.22174240        0.00092128        0.00096721        0.00156615        0.00006670        0.00063943        0.00073143        0.00081605        0.00186766
      79         -0.731386        2.000000        0.21867063        0.00057728        0.00024967        0.00107092        0.00002095        0.00187670        0.00014536        0.00069062        0.00170346
      80         -0.731386        2.000000        0.21867062        0.00057728        0.00024967        0.00107092        0.00002095        0.00187670        0.00014536        0.00069062        0.00170346
      81         -0.731386        2.000000        0.21867063        0.00057728        0.00024967        0.00107092        0.00002095        0.00187670        0.00014536        0.00069062        0.00170346
      82         -0.731386        2.000000        0.21867063        0.00057728        0.00024967        0.00107092        0.00002095        0.00187670        0.00014536        0.00069062        0.00170346
      83         -0.731383        2.000000        0.21992125        0.00055908        0.00025391        0.00105150        0.00001814        0.00189903        0.00014567        0.00071201        0.00171270
      84         -0.731383        2.000000        0.21992123        0.00055908        0.00025391        0.00105150        0.00001814        0.00189903        0.00014567        0.00071201        0.00171270
      85         -0.731383        2.000000        0.21992127        0.00055908        0.00025391        0.00105150        0.00001814        0.00189903        0.00014567        0.00071201        0.00171270
      86         -0.731383        2.000000        0.21992125        0.00055908        0.00025391        0.00105150        0.00001814        0.00189903        0.00014567        0.00071201        0.00171270
      87         -0.731373        2.000000        0.21614967        0.00000000        0.00140819        0.00125548        0.00000000        0.00000000        0.00315624        0.00105781        0.00005446
      88         -0.731370        2.000000        0.22086671        0.00000000        0.00142737        0.00120982        0.00000000        0.00000000        0.00318791        0.00106477        0.00006692
      89         -0.731354        2.000000        0.21573498        0.00002753        0.00097686        0.00115764        0.00003328        0.00064625        0.00149511        0.00088643        0.00053115
      90         -0.731354        2.000000        0.21573498        0.00002753        0.00097686        0.00115764        0.00003328        0.00064625        0.00149511        0.00088643        0.00053115
      91         -0.731353        2.000000        0.21406721        0.00010863        0.00027757        0.00106265        0.00002862        0.00148287        0.00003081        0.00064546        0.00208095
      92         -0.731353        2.000000        0.21406720        0.00010863        0.00027757        0.00106265        0.00002862        0.00148287        0.00003081        0.00064546        0.00208095
      93         -0.731352        2.000000        0.22089596        0.00002957        0.00098626        0.00111234        0.00003007        0.00066736        0.00151746        0.00089155        0.00052459
      94         -0.731352        2.000000        0.22089596        0.00002957        0.00098626        0.00111234        0.00003007        0.00066736        0.00151746        0.00089155        0.00052459
      95         -0.731350        2.000000        0.22041436        0.00011705        0.00027784        0.00102421        0.00002716        0.00153128        0.00003079        0.00064380        0.00207934
      96         -0.731350        2.000000        0.22041435        0.00011705        0.00027784        0.00102421        0.00002716        0.00153128        0.00003079        0.00064380        0.00207934
      97         -0.731318        2.000000        0.21869686        0.00000000        0.00133915        0.00165942        0.00000000        0.00000000        0.00162755        0.00070134        0.00178884
      98         -0.731318        2.000000        0.21869685        0.00000000        0.00133915        0.00165942        0.00000000        0.00000000        0.00162755        0.00070134        0.00178884
      99         -0.731315        2.000000        0.22358783        0.00000000        0.00134298        0.00165214        0.00000000        0.00000000        0.00166462        0.00067939        0.00175635
     100         -0.731315        2.000000        0.22358781        0.00000000        0.00134298        0.00165214        0.00000000        0.00000000        0.00166462        0.00067939        0.00175635
     101         -0.731315        2.000000        0.22311561        0.00000000        0.00228905        0.00001468        0.00000000        0.00000000        0.00082460        0.00008068        0.00683732
     102         -0.731299        2.000000        0.22807232        0.00098026        0.00026932        0.00109751        0.00004310        0.00161753        0.00075514        0.00068531        0.00003917
     103         -0.731299        2.000000        0.22807231        0.00098026        0.00026932        0.00109751        0.00004310        0.00161753        0.00075514        0.00068531        0.00003917
     104         -0.731298        2.000000        0.21865498        0.00020196        0.00088713        0.00144239        0.00005742        0.00068229        0.00086404        0.00066311        0.00102406
     105         -0.731298        2.000000        0.21865497        0.00020196        0.00088713        0.00144239        0.00005742        0.00068229        0.00086404        0.00066311        0.00102406
     106         -0.731298        2.000000        0.21865498        0.00020196        0.00088713        0.00144239        0.00005742        0.00068229        0.00086404        0.00066311        0.00102406
     107         -0.731298        2.000000        0.21865498        0.00020196        0.00088713        0.00144239        0.00005742        0.00068229        0.00086404        0.00066311        0.00102406
     108         -0.731296        2.000000        0.22247382        0.00094871        0.00027037        0.00113746        0.00004843        0.00156111        0.00074736        0.00068570        0.00004735
     109         -0.731296        2.000000        0.22247381        0.00094871        0.00027037        0.00113746        0.00004843        0.00156111        0.00074736        0.00068570        0.00004735
     110         -0.731295        2.000000        0.22393817        0.00019463        0.00088495        0.00144375        0.00006062        0.00068569        0.00087376        0.00062391        0.00099611
     111         -0.731295        2.000000        0.22393817        0.00019463        0.00088495        0.00144375        0.00006062        0.00068569        0.00087376        0.00062391        0.00099611
     112         -0.731295        2.000000        0.22393818        0.00019463        0.00088495        0.00144375        0.00006062        0.00068569        0.00087376        0.00062391        0.00099611
     113         -0.731295        2.000000        0.22393817        0.00019463        0.00088495        0.00144375        0.00006062        0.00068569        0.00087376        0.00062391        0.00099611
     114         -0.731290        2.000000        0.22402847        0.00075056        0.00170781        0.00000834        0.00000760        0.00074514        0.00103116        0.00006077        0.00392376
     115         -0.731290        2.000000        0.22402846        0.00075056        0.00170781        0.00000834        0.00000760        0.00074514        0.00103116        0.00006077        0.00392376
     116         -0.731269        2.000000        0.22355700        0.00047669        0.00023009        0.00106796        0.00005179        0.00158701        0.00046003        0.00066753        0.00024972
     117         -0.731269        2.000000        0.22355698        0.00047669        0.00023009        0.00106796        0.00005179        0.00158701        0.00046003        0.00066753        0.00024972
     118         -0.731269        2.000000        0.22355698        0.00047669        0.00023009        0.00106796        0.00005179        0.00158701        0.00046003        0.00066753        0.00024972
     119         -0.731269        2.000000        0.22355696        0.00047669        0.00023009        0.00106796        0.00005179        0.00158701        0.00046003        0.00066753        0.00024972
     120         -0.731266        2.000000        0.22397276        0.00045298        0.00022593        0.00108639        0.00005875        0.00155803        0.00044454        0.00064206        0.00024876
     121         -0.731266        2.000000        0.22397274        0.00045298        0.00022593        0.00108639        0.00005875        0.00155803        0.00044454        0.00064206        0.00024876
     122         -0.731266        2.000000        0.22397275        0.00045298        0.00022593        0.00108639        0.00005875        0.00155803        0.00044454        0.00064206        0.00024876
     123         -0.731266        2.000000        0.22397273        0.00045298        0.00022593        0.00108639        0.00005875        0.00155803        0.00044454        0.00064206        0.00024876
     124         -0.731242        2.000000        0.23176294        0.00000000        0.00098869        0.00128163        0.00000000        0.00000000        0.00104348        0.00069172        0.00158295
     125         -0.731242        2.000000        0.23176294        0.00000000        0.00098869        0.00128163        0.00000000        0.00000000        0.00104348        0.00069172        0.00158295
     126         -0.731239        2.000000        0.22726332        0.00000000        0.00110148        0.00106858        0.00000000        0.00000000        0.00093210        0.00084902        0.00181802
     127         -0.731239        2.000000        0.22726332        0.00000000        0.00110148        0.00106858        0.00000000        0.00000000        0.00093210        0.00084902        0.00181802
     128         -0.731237        2.000000        0.22076039        0.00000000        0.00126992        0.00035053        0.00000000        0.00000000        0.00143726        0.00023822        0.00438097
     129         -0.731237        2.000000        0.22076040        0.00000000        0.00126992        0.00035053        0.00000000        0.00000000        0.00143726        0.00023822        0.00438097
     130         -0.731236        2.000000        0.23239825        0.00016675        0.00008873        0.00096729        0.00003601        0.00166898        0.00020418        0.00064854        0.00008650
     131         -0.731236        2.000000        0.23239827        0.00016675        0.00008873        0.00096729        0.00003601        0.00166898        0.00020418        0.00064854        0.00008650
     132         -0.731236        2.000000        0.23239827        0.00016675        0.00008873        0.00096729        0.00003601        0.00166898        0.00020418        0.00064854        0.00008650
     133         -0.731236        2.000000        0.23239829        0.00016675        0.00008873        0.00096729        0.00003601        0.00166898        0.00020418        0.00064854        0.00008650
     134         -0.731233        2.000000        0.23285332        0.00006469        0.00059724        0.00117750        0.00003821        0.00068891        0.00040609        0.00068392        0.00057292
     135         -0.731233        2.000000        0.23285332        0.00006469        0.00059724        0.00117750        0.00003821        0.00068891        0.00040609        0.00068392        0.00057292
     136         -0.731233        2.000000        0.23285333        0.00006469        0.00059724        0.00117750        0.00003821        0.00068891        0.00040609        0.00068392        0.00057292
     137         -0.731233        2.000000        0.23285333        0.00006469        0.00059724        0.00117750        0.00003821        0.00068891        0.00040609        0.00068392        0.00057292
     138         -0.731233        2.000000        0.22347374        0.00016586        0.00008934        0.00101424        0.00003719        0.00159327        0.00021594        0.00066093        0.00008449
     139         -0.731233        2.000000        0.22347377        0.00016586        0.00008934        0.00101424        0.00003719        0.00159327        0.00021594        0.00066093        0.00008449
     140         -0.731233        2.000000        0.22347376        0.00016586        0.00008934        0.00101424        0.00003719        0.00159327        0.00021594        0.00066093        0.00008449
     141         -0.731233        2.000000        0.22347379        0.00016586        0.00008934        0.00101424        0.00003719        0.00159327        0.00021594        0.00066093        0.00008449
     142         -0.731230        2.000000        0.22510378        0.00006444        0.00059239        0.00118813        0.00003497        0.00068255        0.00037762        0.00074345        0.00059154
     143         -0.731230        2.000000        0.22510378        0.00006444        0.00059239        0.00118813        0.00003497        0.00068255        0.00037762        0.00074345        0.00059154
     144         -0.731230        2.000000        0.22510378        0.00006444        0.00059239        0.00118813        0.00003497        0.00068255        0.00037762        0.00074345        0.00059154