# Projected DOS for atomic kind Te_3 at iteration step i = 0, E(Fermi) =     0.092883 a.u.
#     MO Eigenvalue [a.u.]      Occupation                 s                py                pz                px               d-2               d-1                d0               d+1               d+2
       1         -0.731804        2.000000        0.00015678        0.00000000        0.00000257        0.00017029        0.00000000        0.00000000        0.00003646        0.00056679        0.00006256
       2         -0.731732        2.000000        0.00012986        0.00000000        0.00009523        0.00013948        0.00000000        0.00000000        0.00028928        0.00049093        0.00007779
       3         -0.731732        2.000000        0.00012986        0.00000000        0.00009523        0.00013948        0.00000000        0.00000000        0.00028928        0.00049093        0.00007779
       4         -0.731709        2.000000        0.00011062        0.00017079        0.00000409        0.00013281        0.00041017        0.00040573        0.00000066        0.00067417        0.00001017
       5         -0.731709        2.000000        0.00011062        0.00017079        0.00000409        0.00013281        0.00041017        0.00040573        0.00000066        0.00067417        0.00001017
       6         -0.731680        2.000000        0.00014087        0.00000000        0.00001160        0.00029216        0.00000000        0.00000000        0.00001278        0.00046815        0.00009079
       7         -0.731677        2.000000        0.00014126        0.00000000        0.00001235        0.00029649        0.00000000        0.00000000        0.00001472        0.00045055        0.00009093
       8         -0.731651        2.000000        0.00009479        0.00013873        0.00006490        0.00011041        0.00047886        0.00050390        0.00018749        0.00061291        0.00003903
       9         -0.731651        2.000000        0.00009479        0.00013873        0.00006490        0.00011041        0.00047886        0.00050390        0.00018749        0.00061291        0.00003903
      10         -0.731651        2.000000        0.00009479        0.00013873        0.00006490        0.00011041        0.00047886        0.00050390        0.00018749        0.00061291        0.00003903
      11         -0.731651        2.000000        0.00009479        0.00013873        0.00006490        0.00011041        0.00047886        0.00050390        0.00018749        0.00061291        0.00003903
      12         -0.731626        2.000000        0.00011808        0.00000000        0.00006493        0.00025161        0.00000000        0.00000000        0.00018421        0.00048493        0.00008620
      13         -0.731626        2.000000        0.00011808        0.00000000        0.00006493        0.00025161        0.00000000        0.00000000        0.00018421        0.00048493        0.00008620
      14         -0.731623        2.000000        0.00011903        0.00000000        0.00006513        0.00025781        0.00000000        0.00000000        0.00018397        0.00047450        0.00008607
      15         -0.731623        2.000000        0.00011903        0.00000000        0.00006513        0.00025781        0.00000000        0.00000000        0.00018397        0.00047450        0.00008607
      16         -0.731603        2.000000        0.00010582        0.00012625        0.00001413        0.00021599        0.00086544        0.00032098        0.00000671        0.00054626        0.00002502
      17         -0.731603        2.000000        0.00010582        0.00012625        0.00001413        0.00021599        0.00086544        0.00032098        0.00000671        0.00054626        0.00002502
      18         -0.731600        2.000000        0.00010598        0.00012759        0.00001502        0.00022006        0.00088268        0.00031810        0.00000881        0.00052969        0.00002517
      19         -0.731600        2.000000        0.00010598        0.00012759        0.00001502        0.00022006        0.00088268        0.00031810        0.00000881        0.00052969        0.00002517
      20         -0.731569        2.000000        0.00008374        0.00000000        0.00019085        0.00008629        0.00000000        0.00000000        0.00117873        0.00045532        0.00013300
      21         -0.731569        2.000000        0.00008374        0.00000000        0.00019085        0.00008629        0.00000000        0.00000000        0.00117873        0.00045532        0.00013300
      22         -0.731559        2.000000        0.00009192        0.00010364        0.00005075        0.00018626        0.00089429        0.00041042        0.00012881        0.00055435        0.00003768
      23         -0.731559        2.000000        0.00009192        0.00010364        0.00005075        0.00018626        0.00089429        0.00041042        0.00012881        0.00055435        0.00003768
      24         -0.731559        2.000000        0.00009192        0.00010364        0.00005075        0.00018626        0.00089429        0.00041042        0.00012881        0.00055435        0.00003768
      25         -0.731559        2.000000        0.00009192        0.00010364        0.00005075        0.00018626        0.00089429        0.00041042        0.00012881        0.00055435        0.00003768
      26         -0.731556        2.000000        0.00009234        0.00010568        0.00005154        0.00019232        0.00092184        0.00040260        0.00012852        0.00054305        0.00003739
      27         -0.731556        2.000000        0.00009234        0.00010568        0.00005154        0.00019232        0.00092184        0.00040260        0.00012852        0.00054305        0.00003739
      28         -0.731556        2.000000        0.00009234        0.00010568        0.00005154        0.00019232        0.00092184        0.00040260        0.00012852        0.00054305        0.00003739
      29         -0.731556        2.000000        0.00009234        0.00010568        0.00005154        0.00019232        0.00092184        0.00040260        0.00012852        0.00054305        0.00003739
      30         -0.731523        2.000000        0.00002802        0.00027202        0.00001768        0.00005735        0.00120605        0.00114920        0.00016669        0.00089886        0.00003489
      31         -0.731523        2.000000        0.00002802        0.00027202        0.00001768        0.00005735        0.00120605        0.00114920        0.00016669        0.00089886        0.00003489
      32         -0.731518        2.000000        0.00006533        0.00008938        0.00013896        0.00006436        0.00067972        0.00061085        0.00089981        0.00058891        0.00011229
      33         -0.731518        2.000000        0.00006533        0.00008938        0.00013896        0.00006436        0.00067972        0.00061085        0.00089981        0.00058891        0.00011229
      34         -0.731518        2.000000        0.00006533        0.00008938        0.00013896        0.00006436        0.00067972        0.00061085        0.00089981        0.00058891        0.00011229
      35         -0.731518        2.000000        0.00006533        0.00008938        0.00013896        0.00006436        0.00067972        0.00061085        0.00089981        0.00058891        0.00011229
      36         -0.731511        2.000000        0.00008636        0.00000000        0.00009525        0.00021629        0.00000000        0.00000000        0.00053029        0.00042587        0.00009214
      37         -0.731511        2.000000        0.00008636        0.00000000        0.00009525        0.00021629        0.00000000        0.00000000        0.00053029        0.00042587        0.00009214
      38         -0.731508        2.000000        0.00008403        0.00000000        0.00009711        0.00021353        0.00000000        0.00000000        0.00054763        0.00042634        0.00009185
      39         -0.731508        2.000000        0.00008403        0.00000000        0.00009711        0.00021353        0.00000000        0.00000000        0.00054763        0.00042634        0.00009185
      40         -0.731498        2.000000        0.00002708        0.00024202        0.00003770        0.00005594        0.00129363        0.00127177        0.00023211        0.00093672        0.00005205
      41         -0.731498        2.000000        0.00002708        0.00024202        0.00003770        0.00005594        0.00129363        0.00127177        0.00023211        0.00093672        0.00005205
      42         -0.731498        2.000000        0.00002708        0.00024202        0.00003770        0.00005594        0.00129363        0.00127177        0.00023211        0.00093672        0.00005205
      43         -0.731498        2.000000        0.00002708        0.00024202        0.00003770        0.00005594        0.00129363        0.00127177        0.00023211        0.00093672        0.00005205
      44         -0.731464        2.000000        0.00007390        0.00007410        0.00008115        0.00015614        0.00113381        0.00044342        0.00044050        0.00049438        0.00006411
      45         -0.731464        2.000000        0.00007390        0.00007410        0.00008115        0.00015614        0.00113381        0.00044342        0.00044050        0.00049438        0.00006411
      46         -0.731464        2.000000        0.00007390        0.00007410        0.00008115        0.00015614        0.00113381        0.00044342        0.00044050        0.00049438        0.00006411
      47         -0.731464        2.000000        0.00007390        0.00007410        0.00008115        0.00015614        0.00113381        0.00044342        0.00044050        0.00049438        0.00006411
      48         -0.731461        2.000000        0.00007049        0.00007213        0.00008249        0.00015492        0.00115416        0.00043663        0.00045929        0.00048675        0.00006412
      49         -0.731461        2.000000        0.00007049        0.00007213        0.00008249        0.00015492        0.00115416        0.00043663        0.00045929        0.00048675        0.00006412
      50         -0.731461        2.000000        0.00007049        0.00007213        0.00008249        0.00015492        0.00115416        0.00043663        0.00045929        0.00048675        0.00006412
      51         -0.731461        2.000000        0.00007049        0.00007213        0.00008249        0.00015492        0.00115416        0.00043663        0.00045929        0.00048675        0.00006412
      52         -0.731450        2.000000        0.00005933        0.00000000        0.00023185        0.00002354        0.00000000        0.00000000        0.00262979        0.00099670        0.00022025
      53         -0.731449        2.000000        0.00003125        0.00020496        0.00002862        0.00007397        0.00229962        0.00092784        0.00024992        0.00078458        0.00001619
      54         -0.731449        2.000000        0.00003125        0.00020496        0.00002862        0.00007397        0.00229962        0.00092784        0.00024992        0.00078458        0.00001619
      55         -0.731446        2.000000        0.00003054        0.00020811        0.00003002        0.00007647        0.00237114        0.00091645        0.00025795        0.00077756        0.00001686
      56         -0.731446        2.000000        0.00003054        0.00020811        0.00003002        0.00007647        0.00237114        0.00091645        0.00025795        0.00077756        0.00001686
      57         -0.731445        2.000000        0.00001986        0.00019976        0.00006418        0.00003364        0.00146667        0.00139640        0.00055755        0.00098721        0.00009725
      58         -0.731445        2.000000        0.00001986        0.00019976        0.00006418        0.00003364        0.00146667        0.00139640        0.00055755        0.00098721        0.00009725
      59         -0.731445        2.000000        0.00001986        0.00019976        0.00006418        0.00003364        0.00146667        0.00139640        0.00055755        0.00098721        0.00009725
      60         -0.731445        2.000000        0.00001986        0.00019976        0.00006418        0.00003364        0.00146667        0.00139640        0.00055755        0.00098721        0.00009725
      61         -0.731436        2.000000        0.00008865        0.00000000        0.00004327        0.00029326        0.00000000        0.00000000        0.00000518        0.00017762        0.00011306
      62         -0.731433        2.000000        0.00009017        0.00000000        0.00004944        0.00027777        0.00000000        0.00000000        0.00008764        0.00021174        0.00011987
      63         -0.731429        2.000000        0.00002711        0.00018616        0.00004645        0.00006677        0.00236131        0.00102656        0.00028665        0.00084357        0.00003048
      64         -0.731429        2.000000        0.00002711        0.00018616        0.00004645        0.00006677        0.00236131        0.00102656        0.00028665        0.00084357        0.00003048
      65         -0.731429        2.000000        0.00002711        0.00018616        0.00004645        0.00006677        0.00236131        0.00102656        0.00028665        0.00084357        0.00003048
      66         -0.731429        2.000000        0.00002711        0.00018616        0.00004645        0.00006677        0.00236131        0.00102656        0.00028665        0.00084357        0.00003048
      67         -0.731426        2.000000        0.00002756        0.00019133        0.00004802        0.00006829        0.00244133        0.00101921        0.00029389        0.00085936        0.00003124
      68         -0.731426        2.000000        0.00002756        0.00019133        0.00004802        0.00006829        0.00244133        0.00101921        0.00029389        0.00085936        0.00003124
      69         -0.731426        2.000000        0.00002756        0.00019133        0.00004802        0.00006829        0.00244133        0.00101921        0.00029389        0.00085936        0.00003124
      70         -0.731426        2.000000        0.00002756        0.00019133        0.00004802        0.00006829        0.00244133        0.00101921        0.00029389        0.00085936        0.00003124
      71         -0.731423        2.000000        0.00003983        0.00007070        0.00017652        0.00000609        0.00071631        0.00066465        0.00208081        0.00104239        0.00019351
      72         -0.731423        2.000000        0.00003983        0.00007070        0.00017652        0.00000609        0.00071631        0.00066465        0.00208081        0.00104239        0.00019351
      73         -0.731413        2.000000        0.00000332        0.00018939        0.00007309        0.00000656        0.00149182        0.00142036        0.00092165        0.00104569        0.00012965
      74         -0.731413        2.000000        0.00000332        0.00018939        0.00007309        0.00000656        0.00149182        0.00142036        0.00092165        0.00104569        0.00012965
      75         -0.731394        2.000000        0.00007270        0.00006132        0.00004901        0.00021362        0.00189374        0.00011201        0.00001069        0.00018681        0.00005910
      76         -0.731394        2.000000        0.00007270        0.00006132        0.00004901        0.00021362        0.00189374        0.00011201        0.00001069        0.00018681        0.00005910
      77         -0.731391        2.000000        0.00007619        0.00006172        0.00005106        0.00020491        0.00181284        0.00013567        0.00003038        0.00019842        0.00006401
      78         -0.731391        2.000000        0.00007619        0.00006172        0.00005106        0.00020491        0.00181284        0.00013567        0.00003038        0.00019842        0.00006401
      79         -0.731386        2.000000        0.00002565        0.00016296        0.00006668        0.00004301        0.00256324        0.00110242        0.00056151        0.00094525        0.00006252
      80         -0.731386        2.000000        0.00002565        0.00016296        0.00006668        0.00004301        0.00256324        0.00110242        0.00056151        0.00094525        0.00006252
      81         -0.731386        2.000000        0.00002565        0.00016296        0.00006668        0.00004301        0.00256324        0.00110242        0.00056151        0.00094525        0.00006252
      82         -0.731386        2.000000        0.00002565        0.00016296        0.00006668        0.00004301        0.00256324        0.00110242        0.00056151        0.00094525        0.00006252
      83         -0.731383        2.000000        0.00002262        0.00016158        0.00006756        0.00004386        0.00267045        0.00107262        0.00058051        0.00093678        0.00006473
      84         -0.731383        2.000000        0.00002262        0.00016158        0.00006756        0.00004386        0.00267045        0.00107262        0.00058051        0.00093678        0.00006473
      85         -0.731383        2.000000        0.00002262        0.00016158        0.00006756        0.00004386        0.00267045        0.00107262        0.00058051        0.00093678        0.00006473
      86         -0.731383        2.000000        0.00002262        0.00016158        0.00006756        0.00004386        0.00267045        0.00107262        0.00058051        0.00093678        0.00006473
      87         -0.731373        2.000000        0.00005189        0.00000000        0.00018475        0.00003604        0.00000000        0.00000000        0.00278703        0.00161135        0.00026512
      88         -0.731370        2.000000        0.00005395        0.00000000        0.00018904        0.00003502        0.00000000        0.00000000        0.00284371        0.00160771        0.00027803
      89         -0.731354        2.000000        0.00003875        0.00005912        0.00014690        0.00001691        0.00112509        0.00050388        0.00221006        0.00147923        0.00020833
      90         -0.731354        2.000000        0.00003875        0.00005912        0.00014690        0.00001691        0.00112509        0.00050388        0.00221006        0.00147923        0.00020833
      91         -0.731353        2.000000        0.00001228        0.00015243        0.00007572        0.00000465        0.00245799        0.00113720        0.00105540        0.00113012        0.00010648
      92         -0.731353        2.000000        0.00001228        0.00015243        0.00007572        0.00000465        0.00245799        0.00113720        0.00105540        0.00113012        0.00010648
      93         -0.731352        2.000000        0.00004090        0.00006256        0.00015235        0.00001535        0.00109582        0.00051514        0.00226533        0.00147386        0.00022066
      94         -0.731352        2.000000        0.00004090        0.00006256        0.00015235        0.00001535        0.00109582        0.00051514        0.00226533        0.00147386        0.00022066
      95         -0.731350        2.000000        0.00000951        0.00015358        0.00007718        0.00000600        0.00263697        0.00109775        0.00108529        0.00114869        0.00010836
      96         -0.731350        2.000000        0.00000951        0.00015358        0.00007718        0.00000600        0.00263697        0.00109775        0.00108529        0.00114869        0.00010836
      97         -0.731318        2.000000        0.00006438        0.00000000        0.00015746        0.00011131        0.00000000        0.00000000        0.00210837        0.00179995        0.00027355
      98         -0.731318        2.000000        0.00006438        0.00000000        0.00015746        0.00011131        0.00000000        0.00000000        0.00210837        0.00179995        0.00027355
      99         -0.731315        2.000000        0.00006270        0.00000000        0.00016011        0.00011118        0.00000000        0.00000000        0.00218992        0.00190425        0.00026961
     100         -0.731315        2.000000        0.00006270        0.00000000        0.00016011        0.00011118        0.00000000        0.00000000        0.00218992        0.00190425        0.00026961
     101         -0.731315        2.000000        0.00003165        0.00000000        0.00006787        0.00021521        0.00000000        0.00000000        0.00002860        0.00004631        0.00007327
     102         -0.731299        2.000000        0.00004635        0.00013077        0.00007232        0.00006435        0.00480124        0.00036953        0.00033294        0.00046631        0.00003018
     103         -0.731299        2.000000        0.00004635        0.00013077        0.00007232        0.00006435        0.00480124        0.00036953        0.00033294        0.00046631        0.00003018
     104         -0.731298        2.000000        0.00004382        0.00005891        0.00013749        0.00007223        0.00176861        0.00019543        0.00164184        0.00152791        0.00019666
     105         -0.731298        2.000000        0.00004382        0.00005891        0.00013749        0.00007223        0.00176861        0.00019543        0.00164184        0.00152791        0.00019666
     106         -0.731298        2.000000        0.00004382        0.00005891        0.00013749        0.00007223        0.00176861        0.00019543        0.00164184        0.00152791        0.00019666
     107         -0.731298        2.000000        0.00004382        0.00005891        0.00013749        0.00007223        0.00176861        0.00019543        0.00164184        0.00152791        0.00019666
     108         -0.731296        2.000000        0.00004734        0.00012370        0.00006882        0.00006205        0.00485097        0.00034743        0.00032104        0.00048670        0.00002619
     109         -0.731296        2.000000        0.00004734        0.00012370        0.00006882        0.00006205        0.00485097        0.00034743        0.00032104        0.00048670        0.00002619
     110         -0.731295        2.000000        0.00004185        0.00005784        0.00013793        0.00007187        0.00185751        0.00018389        0.00171501        0.00166146        0.00018921
     111         -0.731295        2.000000        0.00004185        0.00005784        0.00013793        0.00007187        0.00185751        0.00018389        0.00171501        0.00166146        0.00018921
     112         -0.731295        2.000000        0.00004185        0.00005784        0.00013793        0.00007187        0.00185751        0.00018389        0.00171501        0.00166146        0.00018921
     113         -0.731295        2.000000        0.00004185        0.00005784        0.00013793        0.00007187        0.00185751        0.00018389        0.00171501        0.00166146        0.00018921
     114         -0.731290        2.000000        0.00003514        0.00003854        0.00007642        0.00014876        0.00235109        0.00000954        0.00001047        0.00000457        0.00006236
     115         -0.731290        2.000000        0.00003514        0.00003854        0.00007642        0.00014876        0.00235109        0.00000954        0.00001047        0.00000457        0.00006236
     116         -0.731269        2.000000        0.00001773        0.00013372        0.00010789        0.00003111        0.00466286        0.00043914        0.00069220        0.00085762        0.00006595
     117         -0.731269        2.000000        0.00001773        0.00013372        0.00010789        0.00003111        0.00466286        0.00043914        0.00069220        0.00085762        0.00006595
     118         -0.731269        2.000000        0.00001773        0.00013372        0.00010789        0.00003111        0.00466286        0.00043915        0.00069220        0.00085762        0.00006595
     119         -0.731269        2.000000        0.00001773        0.00013372        0.00010789        0.00003111        0.00466286        0.00043914        0.00069220        0.00085762        0.00006595
     120         -0.731266        2.000000        0.00001966        0.00012869        0.00010451        0.00002847        0.00483386        0.00040592        0.00071349        0.00093907        0.00006147
     121         -0.731266        2.000000        0.00001966        0.00012869        0.00010451        0.00002847        0.00483386        0.00040592        0.00071349        0.00093907        0.00006147
     122         -0.731266        2.000000        0.00001966        0.00012869        0.00010451        0.00002847        0.00483386        0.00040592        0.00071349        0.00093907        0.00006147
     123         -0.731266        2.000000        0.00001966        0.00012869        0.00010451        0.00002847        0.00483386        0.00040592        0.00071349        0.00093907        0.00006147
     124         -0.731242        2.000000        0.00003897        0.00000000        0.00016263        0.00008993        0.00000000        0.00000000        0.00269191        0.00271451        0.00022396
     125         -0.731242        2.000000        0.00003897        0.00000000        0.00016263        0.00008993        0.00000000        0.00000000        0.00269191        0.00271451        0.00022396
     126         -0.731239        2.000000        0.00005022        0.00000000        0.00016833        0.00008434        0.00000000        0.00000000        0.00261128        0.00221181        0.00027799
     127         -0.731239        2.000000        0.00005022        0.00000000        0.00016833        0.00008434        0.00000000        0.00000000        0.00261128        0.00221181        0.00027799
     128         -0.731237        2.000000        0.00002227        0.00000000        0.00013140        0.00013217        0.00000000        0.00000000        0.00166899        0.00175332        0.00011607
     129         -0.731237        2.000000        0.00002227        0.00000000        0.00013140        0.00013217        0.00000000        0.00000000        0.00166899        0.00175332        0.00011607
     130         -0.731236        2.000000        0.00001900        0.00012886        0.00012818        0.00000901        0.00501615        0.00042801        0.00112667        0.00129410        0.00008689
     131         -0.731236        2.000000        0.00001900        0.00012886        0.00012818        0.00000901        0.00501615        0.00042801        0.00112667        0.00129410        0.00008689
     132         -0.731236        2.000000        0.00001900        0.00012886        0.00012818        0.00000901        0.00501615        0.00042801        0.00112667        0.00129410        0.00008689
     133         -0.731236        2.000000        0.00001900        0.00012886        0.00012818        0.00000901        0.00501615        0.00042801        0.00112667        0.00129410        0.00008689
     134         -0.731233        2.000000        0.00003275        0.00005245        0.00015532        0.00004835        0.00210980        0.00016206        0.00225897        0.00230749        0.00018731
     135         -0.731233        2.000000        0.00003275        0.00005245        0.00015532        0.00004835        0.00210980        0.00016206        0.00225897        0.00230749        0.00018731
     136         -0.731233        2.000000        0.00003275        0.00005245        0.00015532        0.00004835        0.00210980        0.00016206        0.00225897        0.00230749        0.00018731
     137         -0.731233        2.000000        0.00003275        0.00005245        0.00015532        0.00004835        0.00210980        0.00016206        0.00225897        0.00230749        0.00018731
     138         -0.731233        2.000000        0.00002164        0.00012339        0.00012448        0.00000886        0.00491009        0.00043638        0.00107472        0.00124832        0.00008133
     139         -0.731233        2.000000        0.00002164        0.00012339        0.00012448        0.00000886        0.00491009        0.00043638        0.00107472        0.00124832        0.00008133
     140         -0.731233        2.000000        0.00002164        0.00012339        0.00012448        0.00000886        0.00491009        0.00043638        0.00107472        0.00124832        0.00008133
     141         -0.731233        2.000000        0.00002164        0.00012339        0.00012448        0.00000886        0.00491010        0.00043638        0.00107472        0.00124832        0.00008133
     142         -0.731230        2.000000        0.00003657        0.00005313        0.00015497        0.00004709        0.00199614        0.00017536        0.00218533        0.00213114        0.00019531
     143         -0.731230        2.000000        0.00003657        0.00005313        0.00015497        0.00004709        0.00199614        0.00017536        0.00218533        0.00213114        0.00019531
     144         -0.731230        2.000000        0.00003657        0.00005313        0.00015497        0.00004709        0.00199614        0.00017536        0.00218533        0.00213114        0.00019531