 DBCSR| CPU Multiplication driver                                           XSMM
 DBCSR| Multrec recursion limit                                              512
 DBCSR| Multiplication stack size                                           1000
 DBCSR| Maximum elements for images                                    UNLIMITED
 DBCSR| Multiplicative factor virtual images                                   1
 DBCSR| Use multiplication densification                                       T
 DBCSR| Multiplication size stacks                                             3
 DBCSR| Use memory pool for CPU allocation                                     F
 DBCSR| Number of 3D layers                                               SINGLE
 DBCSR| Use MPI memory allocation                                              F
 DBCSR| Use RMA algorithm                                                      F
 DBCSR| Use Communication thread                                               T
 DBCSR| Communication thread load                                             87
 DBCSR| MPI: My node id                                                        0
 DBCSR| MPI: Number of nodes                                                  96
 DBCSR| OMP: Current number of threads                                         1
 DBCSR| OMP: Max number of threads                                             1
 DBCSR| Split modifier for TAS multiplication algorithm                  1.0E+00


  **** **** ******  **  PROGRAM STARTED AT               2022-01-04 08:20:01.964
 ***** ** ***  *** **   PROGRAM STARTED ON                               gcn2717
 **    ****   ******    PROGRAM STARTED BY                              nichdsas
 ***** **    ** ** **   PROGRAM PROCESS ID                                455196
  **** **  *******  **  PROGRAM STARTED IN /scratch/usr/nichdsas/cp2k-parser-tes
                                           ts/9.1/cell_opt_walltime_low

 CP2K| version string:                                          CP2K version 9.1
 CP2K| source code revision number:                                  git:d8d7100
 CP2K| cp2kflags: omp libint fftw3 libxc parallel mpi3 scalapack xsmm has_ieee_e
 CP2K|            xceptions spglib libvori libbqb
 CP2K| is freely available from                            https://www.cp2k.org/
 CP2K| Program compiled at                          Mon Jan  3 14:05:13 CET 2022
 CP2K| Program compiled on                                               glogin4
 CP2K| Program compiled for                                      hlrn-gompi-foss
 CP2K| Data directory path            /home/nichdsas/software/cp2k/cp2k-9.1/data
 CP2K| Input file name                                                 aiida.inp

 GLOBAL| Force Environment number                                              1
 GLOBAL| Basis set file name                                        BASIS_MOLOPT
 GLOBAL| Potential file name                                      GTH_POTENTIALS
 GLOBAL| MM Potential file name                                     MM_POTENTIAL
 GLOBAL| Coordinate file name                                      __STD_INPUT__
 GLOBAL| Method name                                                        CP2K
 GLOBAL| Project name                                                      aiida
 GLOBAL| Run type                                                       CELL_OPT
 GLOBAL| FFT library                                                       FFTW3
 GLOBAL| Diagonalization library                                       ScaLAPACK
 GLOBAL| Orthonormality check for eigenvectors                          DISABLED
 GLOBAL| Matrix multiplication library                                 ScaLAPACK
 GLOBAL| All-to-all communication in single precision                          F
 GLOBAL| FFTs using library dependent lengths                                  F
 GLOBAL| Grid backend                                                       AUTO
 GLOBAL| Global print level                                                  LOW
 GLOBAL| MPI I/O enabled                                                       T
 GLOBAL| Total number of message passing processes                            96
 GLOBAL| Number of threads for this process                                    1
 GLOBAL| This output is from process                                           0
 GLOBAL| Stack size for threads created by OpenMP (OMP_STACKSIZE)        default
 GLOBAL| CPU model name             Intel(R) Xeon(R) Platinum 9242 CPU @ 2.30GHz
 GLOBAL| CPUID                                                              1003
 GLOBAL| Compiled for CPUID                                                    0

 *** HINT in environment.F:869 :: The compiler target flags (generic) used ***
 *** to build this binary cannot exploit all extensions of this CPU model  ***
 *** (x86_avx512). Consider compiler target flags as part of FCFLAGS and   ***
 *** CFLAGS (ARCH file).                                                   ***


 MEMORY| system memory details [Kb]
 MEMORY|                        rank 0           min           max       average
 MEMORY| MemTotal            394827328     394827328     394827328     394827328
 MEMORY| MemFree             360057076     360057076     360057108     360057076
 MEMORY| Buffers                     0             0             0             0
 MEMORY| Cached               14421068      14421068      14421072      14421068
 MEMORY| Slab                  2025976       2025976       2025976       2025976
 MEMORY| SReclaimable           336080        336080        336080        336080
 MEMORY| MemLikelyFree       374814224     374814224     374814260     374814224


 GENERATE|  Preliminary Number of Bonds generated:                             0
 GENERATE|  Achieved consistency in connectivity generation.

 *******************************************************************************
 *******************************************************************************
 **                                                                           **
 **     #####                         ##              ##                      **
 **    ##   ##            ##          ##              ##                      **
 **   ##     ##                       ##            ######                    **
 **   ##     ##  ##   ##  ##   #####  ##  ##   ####   ##    #####    #####    **
 **   ##     ##  ##   ##  ##  ##      ## ##   ##      ##   ##   ##  ##   ##   **
 **   ##  ## ##  ##   ##  ##  ##      ####     ###    ##   ######   ######    **
 **    ##  ###   ##   ##  ##  ##      ## ##      ##   ##   ##       ##        **
 **     #######   #####   ##   #####  ##  ##  ####    ##    #####   ##        **
 **           ##                                                    ##        **
 **                                                                           **
 **                                                ... make the atoms dance   **
 **                                                                           **
 **            Copyright (C) by CP2K developers group (2000-2021)             **
 **                      J. Chem. Phys. 152, 194103 (2020)                    **
 **                                                                           **
 *******************************************************************************


 TOTAL NUMBERS AND MAXIMUM NUMBERS

  Total number of            - Atomic kinds:                                   2
                             - Atoms:                                          4
                             - Shell sets:                                     4
                             - Shells:                                        23
                             - Primitive Cartesian functions:                 23
                             - Cartesian basis functions:                     59
                             - Spherical basis functions:                     55

  Maximum angular momentum of- Orbital basis functions:                        2
                             - Local part of the GTH pseudopotential:          2
                             - Non-local part of the GTH pseudopotential:      4


 SCF PARAMETERS         Density guess:                                   RESTART
                        --------------------------------------------------------
                        max_scf:                                             150
                        max_scf_history:                                       0
                        max_diis:                                              4
                        --------------------------------------------------------
                        eps_scf:                                        1.00E-06
                        eps_scf_history:                                0.00E+00
                        eps_diis:                                       1.00E-01
                        eps_eigval:                                     1.00E-05
                        --------------------------------------------------------
                        level_shift [a.u.]:                                 0.00
                        --------------------------------------------------------
                        Mixing method:                            BROYDEN_MIXING
                                                charge density mixing in g-space
                        --------------------------------------------------------
                        No outer SCF

 KPOINTS| Number of kpoint groups                                              4
 KPOINTS| Size of each kpoint group                                           24
 KPOINTS| Number of kpoints per group                                          1

 CELL_OPT| Pressure tolerance [bar]:                                       100.0
 CELL_OPT| Keep angles between the cell vectors:                              NO
 CELL_OPT| Keep cell symmetry:                                                NO
 CELL_OPT| Constraint:                                                      NONE

 BFGS| Use rational function optimization for step estimation:                NO
 BFGS| Use model Hessian for initial guess:                                   NO
 BFGS| Restart Hessian:                                                       NO
 BFGS| Trust radius:                                                       0.472

 *******************************************************************************
 ***                     STARTING   CELL   OPTIMIZATION                      ***
 ***                                   BFGS                                  ***
 *******************************************************************************

 CELL| Volume [angstrom^3]:                                           204.400073
 CELL| Vector a [angstrom]:       6.612     0.000     0.000   |a| =     6.611987
 CELL| Vector b [angstrom]:       3.306     5.726     0.000   |b| =     6.611987
 CELL| Vector c [angstrom]:       3.306     1.909     5.399   |c| =     6.611987
 CELL| Angle (b,c), alpha [degree]:                                    60.000000
 CELL| Angle (a,c), beta  [degree]:                                    60.000000
 CELL| Angle (a,b), gamma [degree]:                                    60.000000
 CELL| Numerically orthorhombic:                                              NO

 Number of electrons:                                                         32
 Number of occupied orbitals:                                                 16
 Number of molecular orbitals:                                                16

 Number of orbital functions:                                                 55
 Number of independent orbital functions:                                     55

 Extrapolation method: initial_guess

 *** WARNING in qs_initial_guess.F:309 :: User requested to restart the    ***
 *** wavefunction from the file named: aiida-RESTART.kp. This file does    ***
 *** not exist. Please check the existence of the file or change properly  ***
 *** the value of the keyword WFN_RESTART_FILE_NAME. Calculation continues ***
 *** using ATOMIC GUESS.                                                   ***



 SCF WAVEFUNCTION OPTIMIZATION

  Step     Update method      Time    Convergence         Total energy    Change
  ------------------------------------------------------------------------------
     1 NoMix/Diag. 0.30E+00    0.4     2.07271002       -66.3624596855 -6.64E+01
     2 Broy./Diag. 0.30E+00    0.7     0.24655881       -66.1662102273  1.96E-01
     3 Broy./Diag. 0.30E+00    0.7     0.38462129       -66.1093930334  5.68E-02
     4 Broy./Diag. 0.30E+00    0.7     0.13797233       -66.0392814100  7.01E-02
     5 Broy./Diag. 0.30E+00    0.7     0.08662847       -65.9762974230  6.30E-02
     6 Broy./Diag. 0.30E+00    0.7     0.00788386       -65.9789656425 -2.67E-03
     7 Broy./Diag. 0.30E+00    0.7     0.00623453       -65.9856510766 -6.69E-03
     8 Broy./Diag. 0.30E+00    0.7     0.00038925       -65.9868825729 -1.23E-03
     9 Broy./Diag. 0.30E+00    0.7     0.00016159       -65.9866099705  2.73E-04
    10 Broy./Diag. 0.30E+00    0.7     0.00006075       -65.9864118309  1.98E-04
    11 Broy./Diag. 0.30E+00    0.7     0.00001202       -65.9863642436  4.76E-05
    12 Broy./Diag. 0.30E+00    0.7     0.00000362       -65.9863641594  8.41E-08
    13 Broy./Diag. 0.30E+00    0.7     0.00000045       -65.9863675033 -3.34E-06

  *** SCF run converged in    13 steps ***


  Electronic density on regular grids:        -31.9999999983        0.0000000017
  Core density on regular grids:               31.9999994903       -0.0000005097
  Total charge density on r-space grids:       -0.0000005079
  Total charge density g-space grids:          -0.0000005079

  Overlap energy of the core charge distribution:               0.00000000000000
  Self energy of the core charge distribution:               -138.89582544120611
  Core Hamiltonian energy:                                     27.23118137810033
  Hartree energy:                                              56.69787184008383
  Exchange-correlation energy:                                -11.01959528031904

  Total energy:                                               -65.98636750334099

 ENERGY| Total FORCE_EVAL ( QS ) energy [a.u.]:              -65.986367696079782

 --------  Informations at step =     0 ------------
  Optimization Method        =                 BFGS
  Total Energy               =       -65.9863676961
  Internal Pressure [bar]    =      1595.5005336272
  Used time                  =               11.242
 ---------------------------------------------------

 --------------------------
 OPTIMIZATION STEP:      1
 --------------------------

 CELL| Volume [angstrom^3]:                                           204.460010
 CELL| Vector a [angstrom]:       6.612     0.000     0.000   |a| =     6.611774
 CELL| Vector b [angstrom]:       3.306     5.727     0.000   |b| =     6.612579
 CELL| Vector c [angstrom]:       3.306     1.908     5.400   |c| =     6.612579
 CELL| Angle (b,c), alpha [degree]:                                    60.010011
 CELL| Angle (a,c), beta  [degree]:                                    60.004692
 CELL| Angle (a,b), gamma [degree]:                                    60.004683
 CELL| Numerically orthorhombic:                                              NO

 Number of electrons:                                                         32
 Number of occupied orbitals:                                                 16
 Number of molecular orbitals:                                                16

 Number of orbital functions:                                                 55
 Number of independent orbital functions:                                     55

 Extrapolation method: initial_guess


 SCF WAVEFUNCTION OPTIMIZATION

  Step     Update method      Time    Convergence         Total energy    Change
  ------------------------------------------------------------------------------
     1 Broy./Diag. 0.30E+00    0.4     0.00373255       -65.9861448510 -6.60E+01
     2 Broy./Diag. 0.30E+00    0.7     0.00037849       -65.9868554466 -7.11E-04
     3 Broy./Diag. 0.30E+00    0.7     0.00035531       -65.9865534772  3.02E-04
     4 Broy./Diag. 0.30E+00    0.7     0.00007442       -65.9864054327  1.48E-04
     5 Broy./Diag. 0.30E+00    0.7     0.00001146       -65.9864057494 -3.17E-07
     6 Broy./Diag. 0.30E+00    0.7     0.00000809       -65.9864302587 -2.45E-05
     7 Broy./Diag. 0.30E+00    0.7     0.00000342       -65.9864434086 -1.31E-05
     8 Broy./Diag. 0.30E+00    0.7     0.00000025       -65.9864452804 -1.87E-06

  *** SCF run converged in     8 steps ***


  Electronic density on regular grids:        -32.0000002412       -0.0000002412
  Core density on regular grids:               31.9999994918       -0.0000005082
  Total charge density on r-space grids:       -0.0000007494
  Total charge density g-space grids:          -0.0000007494

  Overlap energy of the core charge distribution:               0.00000000000000
  Self energy of the core charge distribution:               -138.89582544120611
  Core Hamiltonian energy:                                     27.23054838364110
  Hartree energy:                                              56.69817754449437
  Exchange-correlation energy:                                -11.01934576732504

  Total energy:                                               -65.98644528039569

 ENERGY| Total FORCE_EVAL ( QS ) energy [a.u.]:              -65.986442278813712

 --------  Informations at step =     1 ------------
  Optimization Method        =                 BFGS
  Total Energy               =       -65.9864422788
  Internal Pressure [bar]    =      1545.0630285540
  Real energy change         =        -0.0000745827
  Predicted change in energy =        -0.0000378312
  Scaling factor             =         0.0000000000
  Step size                  =         0.0053300161
  Trust radius               =         0.4724315332
  Decrease in energy         =                  YES
  Used time                  =                7.828

  Convergence check :
  Max. step size             =         0.0053300161
  Conv. limit for step size  =         0.0030000000
  Convergence in step size   =                   NO
  RMS step size              =         0.0020502347
  Conv. limit for RMS step   =         0.0015000000
  Convergence in RMS step    =                   NO
  Max. gradient              =         0.0052214148
  Conv. limit for gradients  =         0.0000190000
  Conv. for gradients        =                   NO
  RMS gradient               =         0.0020122672
  Conv. limit for RMS grad.  =         0.0003000000
  Conv. for gradients        =                   NO
  Pressure Deviation [bar]   =      1577.9163138757
  Pressure Tolerance [bar]   =       100.0000000000
  Conv. for  PRESSURE        =                   NO
 ---------------------------------------------------

 --------------------------
 OPTIMIZATION STEP:      2
 --------------------------

 CELL| Volume [angstrom^3]:                                           207.627051
 CELL| Vector a [angstrom]:       6.600     0.000     0.000   |a| =     6.600440
 CELL| Vector b [angstrom]:       3.296     5.768     0.000   |b| =     6.643708
 CELL| Vector c [angstrom]:       3.296     1.880     5.453   |c| =     6.643859
 CELL| Angle (b,c), alpha [degree]:                                    60.537132
 CELL| Angle (a,c), beta  [degree]:                                    60.253544
 CELL| Angle (a,b), gamma [degree]:                                    60.252267
 CELL| Numerically orthorhombic:                                              NO

 Number of electrons:                                                         32
 Number of occupied orbitals:                                                 16
 Number of molecular orbitals:                                                16

 Number of orbital functions:                                                 55
 Number of independent orbital functions:                                     55

 Extrapolation method: initial_guess


 SCF WAVEFUNCTION OPTIMIZATION

  Step     Update method      Time    Convergence         Total energy    Change
  ------------------------------------------------------------------------------
     1 Broy./Diag. 0.30E+00    0.4     0.59954442       -65.9778488655 -6.60E+01
     2 Broy./Diag. 0.30E+00    0.7     0.01821073       -66.0132971215 -3.54E-02
     3 Broy./Diag. 0.30E+00    0.7     0.01695657       -65.9949177512  1.84E-02
     4 Broy./Diag. 0.30E+00    0.7     0.00351264       -65.9861761841  8.74E-03
     5 Broy./Diag. 0.30E+00    0.7     0.00050948       -65.9863620977 -1.86E-04
     6 Broy./Diag. 0.30E+00    0.7     0.00044754       -65.9878157625 -1.45E-03
     7 Broy./Diag. 0.30E+00    0.7     0.00016666       -65.9885275790 -7.12E-04
     8 Broy./Diag. 0.30E+00    0.7     0.00001774       -65.9886107797 -8.32E-05
     9 Broy./Diag. 0.30E+00    0.7     0.00003467       -65.9884642275  1.47E-04
    10 Broy./Diag. 0.30E+00    0.7     0.00000116       -65.9884207005  4.35E-05
    11 Broy./Diag. 0.30E+00    0.7     0.00000064       -65.9884200970  6.04E-07

  *** SCF run converged in    11 steps ***


  Electronic density on regular grids:        -32.0000002887       -0.0000002887
  Core density on regular grids:               31.9999994942       -0.0000005058
  Total charge density on r-space grids:       -0.0000007945
  Total charge density g-space grids:          -0.0000007945

  Overlap energy of the core charge distribution:               0.00000000000000
  Self energy of the core charge distribution:               -138.89582544120611
  Core Hamiltonian energy:                                     27.20413013848282
  Hartree energy:                                              56.71136218741985
  Exchange-correlation energy:                                -11.00808698172291

  Total energy:                                               -65.98842009702636

 ENERGY| Total FORCE_EVAL ( QS ) energy [a.u.]:              -65.988422678822417

 --------  Informations at step =     2 ------------
  Optimization Method        =                 BFGS
  Total Energy               =       -65.9884226788
  Internal Pressure [bar]    =      -540.3774228867
  Real energy change         =        -0.0019804000
  Predicted change in energy =        -0.0019692757
  Scaling factor             =         0.0000000000
  Step size                  =         0.2821512923
  Trust radius               =         0.4724315332
  Decrease in energy         =                  YES
  Used time                  =                9.726

  Convergence check :
  Max. step size             =         0.2821512923
  Conv. limit for step size  =         0.0030000000
  Convergence in step size   =                   NO
  RMS step size              =         0.1087372544
  Conv. limit for RMS step   =         0.0015000000
  Convergence in RMS step    =                   NO
  Max. gradient              =         0.0011212847
  Conv. limit for gradients  =         0.0000190000
  Conv. for gradients        =                   NO
  RMS gradient               =         0.0004492876
  Conv. limit for RMS grad.  =         0.0003000000
  Conv. for gradients        =                   NO
  Pressure Deviation [bar]   =      -507.5241375650
  Pressure Tolerance [bar]   =       100.0000000000
  Conv. for  PRESSURE        =                   NO
 ---------------------------------------------------

 --------------------------
 OPTIMIZATION STEP:      3
 --------------------------

 CELL| Volume [angstrom^3]:                                           207.676520
 CELL| Vector a [angstrom]:       6.600     0.000     0.000   |a| =     6.600386
 CELL| Vector b [angstrom]:       3.296     5.769     0.000   |b| =     6.644022
 CELL| Vector c [angstrom]:       3.296     1.879     5.454   |c| =     6.644177
 CELL| Angle (b,c), alpha [degree]:                                    60.546583
 CELL| Angle (a,c), beta  [degree]:                                    60.258995
 CELL| Angle (a,b), gamma [degree]:                                    60.257688
 CELL| Numerically orthorhombic:                                              NO

 Number of electrons:                                                         32
 Number of occupied orbitals:                                                 16
 Number of molecular orbitals:                                                16

 Number of orbital functions:                                                 55
 Number of independent orbital functions:                                     55

 Extrapolation method: initial_guess


 SCF WAVEFUNCTION OPTIMIZATION

  Step     Update method      Time    Convergence         Total energy    Change
  ------------------------------------------------------------------------------
     1 Broy./Diag. 0.30E+00    0.4     0.00470907       -65.9882569994 -6.60E+01
     2 Broy./Diag. 0.30E+00    0.7     0.00040321       -65.9887241123 -4.67E-04
     3 Broy./Diag. 0.30E+00    0.7     0.00032802       -65.9885150395  2.09E-04
     4 Broy./Diag. 0.30E+00    0.7     0.00004810       -65.9884044047  1.11E-04
     5 Broy./Diag. 0.30E+00    0.7     0.00000614       -65.9884012316  3.17E-06
     6 Broy./Diag. 0.30E+00    0.7     0.00000591       -65.9884180079 -1.68E-05
     7 Broy./Diag. 0.30E+00    0.7     0.00000189       -65.9884275429 -9.53E-06
     8 Broy./Diag. 0.30E+00    0.7     0.00000016       -65.9884290694 -1.53E-06

  *** SCF run converged in     8 steps ***


  Electronic density on regular grids:        -32.0000003299       -0.0000003299
  Core density on regular grids:               31.9999994955       -0.0000005045
  Total charge density on r-space grids:       -0.0000008344
  Total charge density g-space grids:          -0.0000008344

  Overlap energy of the core charge distribution:               0.00000000000000
  Self energy of the core charge distribution:               -138.89582544120611
  Core Hamiltonian energy:                                     27.20376753260258
  Hartree energy:                                              56.71155560697889
  Exchange-correlation energy:                                -11.00792676774244

  Total energy:                                               -65.98842906936707

 ENERGY| Total FORCE_EVAL ( QS ) energy [a.u.]:              -65.988426931971418

 --------  Informations at step =     3 ------------
  Optimization Method        =                 BFGS
  Total Energy               =       -65.9884269320
  Internal Pressure [bar]    =      -569.9144094216
  Real energy change         =        -0.0000042531
  Predicted change in energy =        -0.0000024019
  Scaling factor             =         0.0000000000
  Step size                  =         0.0045390683
  Trust radius               =         0.4724315332
  Decrease in energy         =                  YES
  Used time                  =                7.657

  Convergence check :
  Max. step size             =         0.0045390683
  Conv. limit for step size  =         0.0030000000
  Convergence in step size   =                   NO
  RMS step size              =         0.0019660763
  Conv. limit for RMS step   =         0.0015000000
  Convergence in RMS step    =                   NO
  Max. gradient              =         0.0011237664
  Conv. limit for gradients  =         0.0000190000
  Conv. for gradients        =                   NO
  RMS gradient               =         0.0004520636
  Conv. limit for RMS grad.  =         0.0003000000
  Conv. for gradients        =                   NO
  Pressure Deviation [bar]   =      -537.0611240998
  Pressure Tolerance [bar]   =       100.0000000000
  Conv. for  PRESSURE        =                   NO
 ---------------------------------------------------

 --------------------------
 OPTIMIZATION STEP:      4
 --------------------------

 CELL| Volume [angstrom^3]:                                           207.822193
 CELL| Vector a [angstrom]:       6.601     0.000     0.000   |a| =     6.600799
 CELL| Vector b [angstrom]:       3.294     5.770     0.000   |b| =     6.644151
 CELL| Vector c [angstrom]:       3.294     1.878     5.456   |c| =     6.644314
 CELL| Angle (b,c), alpha [degree]:                                    60.580342
 CELL| Angle (a,c), beta  [degree]:                                    60.282363
 CELL| Angle (a,b), gamma [degree]:                                    60.280969
 CELL| Numerically orthorhombic:                                              NO

 Number of electrons:                                                         32
 Number of occupied orbitals:                                                 16
 Number of molecular orbitals:                                                16

 Number of orbital functions:                                                 55
 Number of independent orbital functions:                                     55

 Extrapolation method: initial_guess


 SCF WAVEFUNCTION OPTIMIZATION

  Step     Update method      Time    Convergence         Total energy    Change
  ------------------------------------------------------------------------------
     1 Broy./Diag. 0.30E+00    0.4     0.01742370       -65.9878877149 -6.60E+01
     2 Broy./Diag. 0.30E+00    0.7     0.00121648       -65.9894284202 -1.54E-03
     3 Broy./Diag. 0.30E+00    0.7     0.00101705       -65.9887324207  6.96E-04
     4 Broy./Diag. 0.30E+00    0.7     0.00018761       -65.9883845873  3.48E-04
     5 Broy./Diag. 0.30E+00    0.7     0.00001990       -65.9883750219  9.57E-06
     6 Broy./Diag. 0.30E+00    0.7     0.00001840       -65.9884210710 -4.60E-05
     7 Broy./Diag. 0.30E+00    0.7     0.00000631       -65.9884504739 -2.94E-05
     8 Broy./Diag. 0.30E+00    0.7     0.00000052       -65.9884562379 -5.76E-06

  *** SCF run converged in     8 steps ***


  Electronic density on regular grids:        -32.0000008618       -0.0000008618
  Core density on regular grids:               31.9999994922       -0.0000005078
  Total charge density on r-space grids:       -0.0000013697
  Total charge density g-space grids:          -0.0000013697

  Overlap energy of the core charge distribution:               0.00000000000000
  Self energy of the core charge distribution:               -138.89582544120611
  Core Hamiltonian energy:                                     27.20255175010977
  Hartree energy:                                              56.71221497053446
  Exchange-correlation energy:                                -11.00739751737965

  Total energy:                                               -65.98845623794155

 ENERGY| Total FORCE_EVAL ( QS ) energy [a.u.]:              -65.988449865969272

 --------  Informations at step =     4 ------------
  Optimization Method        =                 BFGS
  Total Energy               =       -65.9884498660
  Internal Pressure [bar]    =      -674.4264331739
  Real energy change         =        -0.0000229340
  Predicted change in energy =        -0.0000139865
  Scaling factor             =         0.0000000000
  Step size                  =         0.0165662306
  Trust radius               =         0.4724315332
  Decrease in energy         =                  YES
  Used time                  =                7.711

  Convergence check :
  Max. step size             =         0.0165662306
  Conv. limit for step size  =         0.0030000000
  Convergence in step size   =                   NO
  RMS step size              =         0.0074676669
  Conv. limit for RMS step   =         0.0015000000
  Convergence in RMS step    =                   NO
  Max. gradient              =         0.0010866862
  Conv. limit for gradients  =         0.0000190000
  Conv. for gradients        =                   NO
  RMS gradient               =         0.0004623508
  Conv. limit for RMS grad.  =         0.0003000000
  Conv. for gradients        =                   NO
  Pressure Deviation [bar]   =      -641.5731478521
  Pressure Tolerance [bar]   =       100.0000000000
  Conv. for  PRESSURE        =                   NO
 ---------------------------------------------------

 --------------------------
 OPTIMIZATION STEP:      5
 --------------------------

 CELL| Volume [angstrom^3]:                                           207.942819
 CELL| Vector a [angstrom]:       6.602     0.000     0.000   |a| =     6.602498
 CELL| Vector b [angstrom]:       3.289     5.771     0.000   |b| =     6.642347
 CELL| Vector c [angstrom]:       3.289     1.876     5.458   |c| =     6.642508
 CELL| Angle (b,c), alpha [degree]:                                    60.622720
 CELL| Angle (a,c), beta  [degree]:                                    60.319380
 CELL| Angle (a,b), gamma [degree]:                                    60.317915
 CELL| Numerically orthorhombic:                                              NO

 Number of electrons:                                                         32
 Number of occupied orbitals:                                                 16
 Number of molecular orbitals:                                                16

 Number of orbital functions:                                                 55
 Number of independent orbital functions:                                     55

 Extrapolation method: initial_guess


 SCF WAVEFUNCTION OPTIMIZATION

  Step     Update method      Time    Convergence         Total energy    Change
  ------------------------------------------------------------------------------
     1 Broy./Diag. 0.30E+00    0.4     0.44185264       -65.9878910936 -6.60E+01
     2 Broy./Diag. 0.30E+00    0.7     0.00106905       -65.9895003646 -1.61E-03
     3 Broy./Diag. 0.30E+00    0.7     0.00101482       -65.9887509075  7.49E-04
     4 Broy./Diag. 0.30E+00    0.7     0.00028000       -65.9884283908  3.23E-04
     5 Broy./Diag. 0.30E+00    0.7     0.00003097       -65.9884267473  1.64E-06
     6 Broy./Diag. 0.30E+00    0.7     0.00002559       -65.9884612323 -3.45E-05
     7 Broy./Diag. 0.30E+00    0.7     0.00000611       -65.9884873202 -2.61E-05
     8 Broy./Diag. 0.30E+00    0.7     0.00000088       -65.9884941706 -6.85E-06

  *** SCF run converged in     8 steps ***


  Electronic density on regular grids:        -32.0000002871       -0.0000002871
  Core density on regular grids:               31.9999994928       -0.0000005072
  Total charge density on r-space grids:       -0.0000007943
  Total charge density g-space grids:          -0.0000007943

  Overlap energy of the core charge distribution:               0.00000000000000
  Self energy of the core charge distribution:               -138.89582544120611
  Core Hamiltonian energy:                                     27.20124227370497
  Hartree energy:                                              56.71293807924317
  Exchange-correlation energy:                                -11.00684908230352

  Total energy:                                               -65.98849417056148

 ENERGY| Total FORCE_EVAL ( QS ) energy [a.u.]:              -65.988489040133516

 --------  Informations at step =     5 ------------
  Optimization Method        =                 BFGS
  Total Energy               =       -65.9884890401
  Internal Pressure [bar]    =      -787.4965073134
  Real energy change         =        -0.0000391742
  Predicted change in energy =        -0.0000244159
  Scaling factor             =         0.0000000000
  Step size                  =         0.0262790831
  Trust radius               =         0.4724315332
  Decrease in energy         =                  YES
  Used time                  =                7.660

  Convergence check :
  Max. step size             =         0.0262790831
  Conv. limit for step size  =         0.0030000000
  Convergence in step size   =                   NO
  RMS step size              =         0.0111702241
  Conv. limit for RMS step   =         0.0015000000
  Convergence in RMS step    =                   NO
  Max. gradient              =         0.0009507693
  Conv. limit for gradients  =         0.0000190000
  Conv. for gradients        =                   NO
  RMS gradient               =         0.0004640807
  Conv. limit for RMS grad.  =         0.0003000000
  Conv. for gradients        =                   NO
  Pressure Deviation [bar]   =      -754.6432219916
  Pressure Tolerance [bar]   =       100.0000000000
  Conv. for  PRESSURE        =                   NO
 ---------------------------------------------------

 --------------------------
 OPTIMIZATION STEP:      6
 --------------------------

 CELL| Volume [angstrom^3]:                                           207.974568
 CELL| Vector a [angstrom]:       6.607     0.000     0.000   |a| =     6.607231
 CELL| Vector b [angstrom]:       3.279     5.769     0.000   |b| =     6.635808
 CELL| Vector c [angstrom]:       3.279     1.874     5.456   |c| =     6.635942
 CELL| Angle (b,c), alpha [degree]:                                    60.680025
 CELL| Angle (a,c), beta  [degree]:                                    60.385442
 CELL| Angle (a,b), gamma [degree]:                                    60.383975
 CELL| Numerically orthorhombic:                                              NO

 Number of electrons:                                                         32
 Number of occupied orbitals:                                                 16
 Number of molecular orbitals:                                                16

 Number of orbital functions:                                                 55
 Number of independent orbital functions:                                     55

 Extrapolation method: initial_guess


 SCF WAVEFUNCTION OPTIMIZATION

  Step     Update method      Time    Convergence         Total energy    Change
  ------------------------------------------------------------------------------
     1 Broy./Diag. 0.30E+00    0.4     0.40104196       -65.9880645620 -6.60E+01
     2 Broy./Diag. 0.30E+00    0.7     0.00063413       -65.9893248221 -1.26E-03
     3 Broy./Diag. 0.30E+00    0.7     0.00075028       -65.9887199932  6.05E-04
     4 Broy./Diag. 0.30E+00    0.7     0.00027387       -65.9885145827  2.05E-04
     5 Broy./Diag. 0.30E+00    0.7     0.00004554       -65.9885236110 -9.03E-06
     6 Broy./Diag. 0.30E+00    0.7     0.00004825       -65.9885408729 -1.73E-05
     7 Broy./Diag. 0.30E+00    0.7     0.00000884       -65.9885556897 -1.48E-05
     8 Broy./Diag. 0.30E+00    0.7     0.00000191       -65.9885610180 -5.33E-06
     9 Broy./Diag. 0.30E+00    0.7     0.00000094       -65.9885597464  1.27E-06

  *** SCF run converged in     9 steps ***


  Electronic density on regular grids:        -32.0000006789       -0.0000006789
  Core density on regular grids:               31.9999994968       -0.0000005032
  Total charge density on r-space grids:       -0.0000011821
  Total charge density g-space grids:          -0.0000011821

  Overlap energy of the core charge distribution:               0.00000000000000
  Self energy of the core charge distribution:               -138.89582544120611
  Core Hamiltonian energy:                                     27.20016737783849
  Hartree energy:                                              56.71354406645872
  Exchange-correlation energy:                                -11.00644574952441

  Total energy:                                               -65.98855974643331

 ENERGY| Total FORCE_EVAL ( QS ) energy [a.u.]:              -65.988558257196331

 --------  Informations at step =     6 ------------
  Optimization Method        =                 BFGS
  Total Energy               =       -65.9885582572
  Internal Pressure [bar]    =      -880.6366014993
  Real energy change         =        -0.0000692171
  Predicted change in energy =        -0.0000489528
  Scaling factor             =         0.0000000000
  Step size                  =         0.0468908632
  Trust radius               =         0.4724315332
  Decrease in energy         =                  YES
  Used time                  =                8.379

  Convergence check :
  Max. step size             =         0.0468908632
  Conv. limit for step size  =         0.0030000000
  Convergence in step size   =                   NO
  RMS step size              =         0.0205480967
  Conv. limit for RMS step   =         0.0015000000
  Convergence in RMS step    =                   NO
  Max. gradient              =         0.0010194354
  Conv. limit for gradients  =         0.0000190000
  Conv. for gradients        =                   NO
  RMS gradient               =         0.0004310348
  Conv. limit for RMS grad.  =         0.0003000000
  Conv. for gradients        =                   NO
  Pressure Deviation [bar]   =      -847.7833161775
  Pressure Tolerance [bar]   =       100.0000000000
  Conv. for  PRESSURE        =                   NO
 ---------------------------------------------------

 --------------------------
 OPTIMIZATION STEP:      7
 --------------------------

 CELL| Volume [angstrom^3]:                                           207.760745
 CELL| Vector a [angstrom]:       6.613     0.000     0.000   |a| =     6.613101
 CELL| Vector b [angstrom]:       3.269     5.764     0.000   |b| =     6.626387
 CELL| Vector c [angstrom]:       3.269     1.874     5.451   |c| =     6.626468
 CELL| Angle (b,c), alpha [degree]:                                    60.701353
 CELL| Angle (a,c), beta  [degree]:                                    60.437296
 CELL| Angle (a,b), gamma [degree]:                                    60.435991
 CELL| Numerically orthorhombic:                                              NO

 Number of electrons:                                                         32
 Number of occupied orbitals:                                                 16
 Number of molecular orbitals:                                                16

 Number of orbital functions:                                                 55
 Number of independent orbital functions:                                     55

 Extrapolation method: initial_guess


 SCF WAVEFUNCTION OPTIMIZATION

  Step     Update method      Time    Convergence         Total energy    Change
  ------------------------------------------------------------------------------
     1 Broy./Diag. 0.30E+00    0.4     0.40623267       -65.9888633573 -6.60E+01
     2 Broy./Diag. 0.30E+00    0.7     0.00162043       -65.9875803270  1.28E-03
     3 Broy./Diag. 0.30E+00    0.7     0.00163699       -65.9883752641 -7.95E-04
     4 Broy./Diag. 0.30E+00    0.7     0.00035365       -65.9886804136 -3.05E-04
     5 Broy./Diag. 0.30E+00    0.7     0.00004209       -65.9886684976  1.19E-05
     6 Broy./Diag. 0.30E+00    0.7     0.00004670       -65.9886416841  2.68E-05
     7 Broy./Diag. 0.30E+00    0.7     0.00000524       -65.9886206677  2.10E-05
     8 Broy./Diag. 0.30E+00    0.7     0.00000149       -65.9886144008  6.27E-06
     9 Broy./Diag. 0.30E+00    0.7     0.00000087       -65.9886165954 -2.19E-06

  *** SCF run converged in     9 steps ***


  Electronic density on regular grids:        -31.9999990900        0.0000009100
  Core density on regular grids:               31.9999994955       -0.0000005045
  Total charge density on r-space grids:        0.0000004055
  Total charge density g-space grids:           0.0000004055

  Overlap energy of the core charge distribution:               0.00000000000000
  Self energy of the core charge distribution:               -138.89582544120611
  Core Hamiltonian energy:                                     27.20105551590302
  Hartree energy:                                              56.71302867858449
  Exchange-correlation energy:                                -11.00687534870399

  Total energy:                                               -65.98861659542258

 ENERGY| Total FORCE_EVAL ( QS ) energy [a.u.]:              -65.988618560432215

 --------  Informations at step =     7 ------------
  Optimization Method        =                 BFGS
  Total Energy               =       -65.9886185604
  Internal Pressure [bar]    =      -807.9328163683
  Real energy change         =        -0.0000603032
  Predicted change in energy =        -0.0000456577
  Scaling factor             =         0.0000000000
  Step size                  =         0.0478449356
  Trust radius               =         0.4724315332
  Decrease in energy         =                  YES
  Used time                  =                8.375

  Convergence check :
  Max. step size             =         0.0478449356
  Conv. limit for step size  =         0.0030000000
  Convergence in step size   =                   NO
  RMS step size              =         0.0193088822
  Conv. limit for RMS step   =         0.0015000000
  Convergence in RMS step    =                   NO
  Max. gradient              =         0.0007151020
  Conv. limit for gradients  =         0.0000190000
  Conv. for gradients        =                   NO
  RMS gradient               =         0.0003145210
  Conv. limit for RMS grad.  =         0.0003000000
  Conv. for gradients        =                   NO
  Pressure Deviation [bar]   =      -775.0795310466
  Pressure Tolerance [bar]   =       100.0000000000
  Conv. for  PRESSURE        =                   NO
 ---------------------------------------------------

 --------------------------
 OPTIMIZATION STEP:      8
 --------------------------

 CELL| Volume [angstrom^3]:                                           207.424383
 CELL| Vector a [angstrom]:       6.617     0.000     0.000   |a| =     6.617084
 CELL| Vector b [angstrom]:       3.264     5.758     0.000   |b| =     6.618913
 CELL| Vector c [angstrom]:       3.264     1.875     5.444   |c| =     6.618943
 CELL| Angle (b,c), alpha [degree]:                                    60.679404
 CELL| Angle (a,c), beta  [degree]:                                    60.450778
 CELL| Angle (a,b), gamma [degree]:                                    60.449698
 CELL| Numerically orthorhombic:                                              NO

 Number of electrons:                                                         32
 Number of occupied orbitals:                                                 16
 Number of molecular orbitals:                                                16

 Number of orbital functions:                                                 55
 Number of independent orbital functions:                                     55

 Extrapolation method: initial_guess


 SCF WAVEFUNCTION OPTIMIZATION

  Step     Update method      Time    Convergence         Total energy    Change
  ------------------------------------------------------------------------------
     1 Broy./Diag. 0.30E+00    0.4     0.01329604       -65.9893136156 -6.60E+01
     2 Broy./Diag. 0.30E+00    0.7     0.00278191       -65.9866351867  2.68E-03
     3 Broy./Diag. 0.30E+00    0.7     0.00225128       -65.9879758917 -1.34E-03
     4 Broy./Diag. 0.30E+00    0.7     0.00026523       -65.9887430442 -7.67E-04
     5 Broy./Diag. 0.30E+00    0.7     0.00003575       -65.9888040409 -6.10E-05
     6 Broy./Diag. 0.30E+00    0.7     0.00003489       -65.9887006777  1.03E-04
     7 Broy./Diag. 0.30E+00    0.7     0.00000837       -65.9886479520  5.27E-05
     8 Broy./Diag. 0.30E+00    0.7     0.00000106       -65.9886408814  7.07E-06
     9 Broy./Diag. 0.30E+00    0.7     0.00000187       -65.9886484726 -7.59E-06
    10 Broy./Diag. 0.30E+00    0.7     0.00000015       -65.9886515087 -3.04E-06

  *** SCF run converged in    10 steps ***


  Electronic density on regular grids:        -31.9999996148        0.0000003852
  Core density on regular grids:               31.9999994935       -0.0000005065
  Total charge density on r-space grids:       -0.0000001213
  Total charge density g-space grids:          -0.0000001213

  Overlap energy of the core charge distribution:               0.00000000000000
  Self energy of the core charge distribution:               -138.89582544120611
  Core Hamiltonian energy:                                     27.20296632779140
  Hartree energy:                                              56.71195781873608
  Exchange-correlation energy:                                -11.00775021406232

  Total energy:                                               -65.98865150874096

 ENERGY| Total FORCE_EVAL ( QS ) energy [a.u.]:              -65.988651684837194

 --------  Informations at step =     8 ------------
  Optimization Method        =                 BFGS
  Total Energy               =       -65.9886516848
  Internal Pressure [bar]    =      -655.1379921243
  Real energy change         =        -0.0000331244
  Predicted change in energy =        -0.0000265410
  Scaling factor             =         0.0000000000
  Step size                  =         0.0253489246
  Trust radius               =         0.4724315332
  Decrease in energy         =                  YES
  Used time                  =                9.079

  Convergence check :
  Max. step size             =         0.0253489246
  Conv. limit for step size  =         0.0030000000
  Convergence in step size   =                   NO
  RMS step size              =         0.0122604364
  Conv. limit for RMS step   =         0.0015000000
  Convergence in RMS step    =                   NO
  Max. gradient              =         0.0003552309
  Conv. limit for gradients  =         0.0000190000
  Conv. for gradients        =                   NO
  RMS gradient               =         0.0001911536
  Conv. limit for RMS grad.  =         0.0003000000
  Conv. in RMS gradients     =                  YES
  Pressure Deviation [bar]   =      -622.2847068025
  Pressure Tolerance [bar]   =       100.0000000000
  Conv. for  PRESSURE        =                   NO
 ---------------------------------------------------

 --------------------------
 OPTIMIZATION STEP:      9
 --------------------------

 CELL| Volume [angstrom^3]:                                           207.281490
 CELL| Vector a [angstrom]:       6.617     0.000     0.000   |a| =     6.617284
 CELL| Vector b [angstrom]:       3.265     5.756     0.000   |b| =     6.617700
 CELL| Vector c [angstrom]:       3.265     1.877     5.442   |c| =     6.617719
 CELL| Angle (b,c), alpha [degree]:                                    60.656080
 CELL| Angle (a,c), beta  [degree]:                                    60.438673
 CELL| Angle (a,b), gamma [degree]:                                    60.437674
 CELL| Numerically orthorhombic:                                              NO

 Number of electrons:                                                         32
 Number of occupied orbitals:                                                 16
 Number of molecular orbitals:                                                16

 Number of orbital functions:                                                 55
 Number of independent orbital functions:                                     55

 Extrapolation method: initial_guess


 SCF WAVEFUNCTION OPTIMIZATION

  Step     Update method      Time    Convergence         Total energy    Change
  ------------------------------------------------------------------------------
     1 Broy./Diag. 0.30E+00    0.4     0.21542288       -65.9889831166 -6.60E+01
     2 Broy./Diag. 0.30E+00    0.7     0.00122467       -65.9878428517  1.14E-03
     3 Broy./Diag. 0.30E+00    0.7     0.00096922       -65.9884012335 -5.58E-04
     4 Broy./Diag. 0.30E+00    0.7     0.00013289       -65.9887165385 -3.15E-04
     5 Broy./Diag. 0.30E+00    0.7     0.00001488       -65.9887319818 -1.54E-05
     6 Broy./Diag. 0.30E+00    0.7     0.00001483       -65.9886803011  5.17E-05
     7 Broy./Diag. 0.30E+00    0.7     0.00000428       -65.9886545805  2.57E-05
     8 Broy./Diag. 0.30E+00    0.7     0.00000040       -65.9886514069  3.17E-06

  *** SCF run converged in     8 steps ***


  Electronic density on regular grids:        -31.9999991702        0.0000008298
  Core density on regular grids:               31.9999994958       -0.0000005042
  Total charge density on r-space grids:        0.0000003255
  Total charge density g-space grids:           0.0000003255

  Overlap energy of the core charge distribution:               0.00000000000000
  Self energy of the core charge distribution:               -138.89582544120611
  Core Hamiltonian energy:                                     27.20375480157899
  Hartree energy:                                              56.71153644280071
  Exchange-correlation energy:                                -11.00811721011177

  Total energy:                                               -65.98865140693820

 ENERGY| Total FORCE_EVAL ( QS ) energy [a.u.]:              -65.988656920943129

 --------  Informations at step =     9 ------------
  Optimization Method        =                 BFGS
  Total Energy               =       -65.9886569209
  Internal Pressure [bar]    =      -592.7416244765
  Real energy change         =        -0.0000052361
  Predicted change in energy =        -0.0000044348
  Scaling factor             =         0.0000000000
  Step size                  =         0.0118566299
  Trust radius               =         0.4724315332
  Decrease in energy         =                  YES
  Used time                  =                7.710

  Convergence check :
  Max. step size             =         0.0118566299
  Conv. limit for step size  =         0.0030000000
  Convergence in step size   =                   NO
  RMS step size              =         0.0049300448
  Conv. limit for RMS step   =         0.0015000000
  Convergence in RMS step    =                   NO
  Max. gradient              =         0.0002547282
  Conv. limit for gradients  =         0.0000190000
  Conv. for gradients        =                   NO
  RMS gradient               =         0.0001666263
  Conv. limit for RMS grad.  =         0.0003000000
  Conv. in RMS gradients     =                  YES
  Pressure Deviation [bar]   =      -559.8883391547
  Pressure Tolerance [bar]   =       100.0000000000
  Conv. for  PRESSURE        =                   NO
 ---------------------------------------------------

 --------------------------
 OPTIMIZATION STEP:     10
 --------------------------

 CELL| Volume [angstrom^3]:                                           207.248931
 CELL| Vector a [angstrom]:       6.617     0.000     0.000   |a| =     6.616918
 CELL| Vector b [angstrom]:       3.266     5.756     0.000   |b| =     6.617814
 CELL| Vector c [angstrom]:       3.266     1.877     5.441   |c| =     6.617834
 CELL| Angle (b,c), alpha [degree]:                                    60.649136
 CELL| Angle (a,c), beta  [degree]:                                    60.432943
 CELL| Angle (a,b), gamma [degree]:                                    60.431953
 CELL| Numerically orthorhombic:                                              NO

 Number of electrons:                                                         32
 Number of occupied orbitals:                                                 16
 Number of molecular orbitals:                                                16

 Number of orbital functions:                                                 55
 Number of independent orbital functions:                                     55

 Extrapolation method: initial_guess


 SCF WAVEFUNCTION OPTIMIZATION

  Step     Update method      Time    Convergence         Total energy    Change
  ------------------------------------------------------------------------------
     1 Broy./Diag. 0.30E+00    0.4     0.00405589       -65.9887382348 -6.60E+01
     2 Broy./Diag. 0.30E+00    0.7     0.00027154       -65.9884841095  2.54E-04
     3 Broy./Diag. 0.30E+00    0.7     0.00023119       -65.9886141813 -1.30E-04
     4 Broy./Diag. 0.30E+00    0.7     0.00004442       -65.9886727058 -5.85E-05
     5 Broy./Diag. 0.30E+00    0.7     0.00000444       -65.9886717115  9.94E-07
     6 Broy./Diag. 0.30E+00    0.7     0.00000458       -65.9886630112  8.70E-06
     7 Broy./Diag. 0.30E+00    0.7     0.00000096       -65.9886579466  5.06E-06

 *** SCF run terminated - exceeded requested execution time:      90.000 seconds.

 *** Execution time now:       90.600 seconds.

  *** SCF run converged in     7 steps ***


  Electronic density on regular grids:        -32.0000014259       -0.0000014259
  Core density on regular grids:               31.9999994960       -0.0000005040
  Total charge density on r-space grids:       -0.0000019299
  Total charge density g-space grids:          -0.0000019299

  Overlap energy of the core charge distribution:               0.00000000000000
  Self energy of the core charge distribution:               -138.89582544120611
  Core Hamiltonian energy:                                     27.20392520825000
  Hartree energy:                                              56.71144288679575
  Exchange-correlation energy:                                -11.00820060048917

  Total energy:                                               -65.98865794664954

 ENERGY| Total FORCE_EVAL ( QS ) energy [a.u.]:              -65.988657848391853

 *** GEO run terminated - exceeded requested execution time:      90.000 seconds.

 *** Execution time now:       92.491 seconds.

 -------------------------------------------------------------------------------
 -                                                                             -
 -                                DBCSR STATISTICS                             -
 -                                                                             -
 -------------------------------------------------------------------------------
 COUNTER                                    TOTAL       BLAS       SMM       ACC
 flops inhomo. stacks                           0       0.0%      0.0%      0.0%
 flops total                         0.000000E+00       0.0%      0.0%      0.0%
 flops max/rank                      0.000000E+00       0.0%      0.0%      0.0%
 matmuls inhomo. stacks                         0       0.0%      0.0%      0.0%
 matmuls total                                  0       0.0%      0.0%      0.0%
 number of processed stacks                     0       0.0%      0.0%      0.0%
 average stack size                                     0.0       0.0       0.0
 marketing flops                     0.000000E+00
 -------------------------------------------------------------------------------
 -                                                                             -
 -                      DBCSR MESSAGE PASSING PERFORMANCE                      -
 -                                                                             -
 -------------------------------------------------------------------------------
 ROUTINE             CALLS      AVE VOLUME [Bytes]
 MP_Bcast                1                     12.
 MP_Allreduce        50502                      8.
 MP_Alltoall         79361                  26588.
 -------------------------------------------------------------------------------

 -------------------------------------------------------------------------------
 -                                                                             -
 -                                GRID STATISTICS                              -
 -                                                                             -
 -------------------------------------------------------------------------------
 LP    KERNEL             BACKEND                              COUNT     PERCENT
 4     collocate general  REF                                 560625      50.00%
 4     integrate general  REF                                 504595      45.00%
 7     integrate general  REF                                  56030       5.00%
 0     collocate general  REF                                     44       0.00%
 3     integrate general  REF                                     44       0.00%
 -------------------------------------------------------------------------------

 MEMORY| Estimated peak process memory [MiB]                                 250

 -------------------------------------------------------------------------------
 -                                                                             -
 -                         MESSAGE PASSING PERFORMANCE                         -
 -                                                                             -
 -------------------------------------------------------------------------------

 ROUTINE             CALLS      AVE VOLUME [Bytes]
 MP_Group               49
 MP_Bcast            44889                  11667.
 MP_Allreduce        25284                     79.
 MP_Sync              1388
 MP_Alltoall          3301
 MP_ISendRecv        85690                   6486.
 MP_Wait             97482
 MP_comm_split          10
 MP_ISend            21956                    327.
 MP_IRecv            27412                    270.
 MP_Recv             25300                   2194.
 -------------------------------------------------------------------------------


 -------------------------------------------------------------------------------
 -                                                                             -
 -                           R E F E R E N C E S                               -
 -                                                                             -
 -------------------------------------------------------------------------------
 
 CP2K version 9.1, the CP2K developers group (2021).
 CP2K is freely available from https://www.cp2k.org/ .

 Kuehne,Thomas D.; Iannuzzi,Marcella; Del Ben,Mauro;
 Rybkin,Vladimir V.; Seewald,Patrick; Stein,Frederick; Laino,Teodoro;
 Khaliullin,Rustam Z.; Schuett,Ole; Schiffmann,Florian; Golze,Dorothea;
 Wilhelm,Jan; Chulkov,Sergey; Bani-Hashemian,Mohammad Hossein;
 Weber,Valery; Borstnik,Urban; Taillefumier,Mathieu;
 Jakobovits,Alice Shoshana; Lazzaro,Alfio; Pabst,Hans; Mueller,Tiziano;
 Schade,Robert; Guidon,Manuel; Andermatt,Samuel; Holmberg,Nico;
 Schenter,Gregory K.; Hehn,Anna; Bussy,Augustin; Belleflamme,Fabian;
 Tabacchi,Gloria; Gloess,Andreas; Lass,Michael; Bethune,Iain;
 Mundy,Christopher J.; Plessl,Christian; Watkins,Matt;
 VandeVondele,Joost; Krack,Matthias; Hutter,Juerg. 
 The Journal of Chemical Physics, 152 (19), (2020). 
 CP2K: An electronic structure and molecular dynamics software package -
 Quickstep: Efficient and accurate electronic structure calculations.
 https://doi.org/10.1063/5.0007045

 Togo, Atsushi; Tanaka, Isao. arXiv, 1808.01590 (2018). 
 Spglib : a software library for crystal symmetry search.
 https://doi.org/xxx

 Schuett, Ole; Messmer, Peter; Hutter, Juerg; VandeVondele, Joost. 
 Electronic Structure Calculations on Graphics Processing Units, John
 Wiley & Sons, Ltd, 173-190 (2016). 
 GPU-Accelerated Sparse Matrix-Matrix Multiplication for
 Linear Scaling Density Functional Theory.
 https://doi.org/10.1002/9781118670712.ch8

 Heinecke, A; Henry, G; Hutchinson, M; Pabst, H. 
 Proceedings of Intl. Supercomputing Conference, 981-991 (2016). 
 LIBXSMM: Accelerating Small Matrix Multiplications
 by Runtime Code Generation.
 https://doi.org/10.1109/SC.2016.83

 Borstnik, U; VandeVondele, J; Weber, V; Hutter, J. 
 PARALLEL COMPUTING, 40 (5-6), 47-58 (2014). 
 Sparse matrix multiplication: The distributed block-compressed sparse
 row library.
 https://doi.org/10.1016/j.parco.2014.03.012

 Hutter, J; Iannuzzi, M; Schiffmann, F; VandeVondele, J. 
 WIREs Comput Mol Sci., 4 (1), 15-25 (2014). 
 CP2K: atomistic simulations of condensed matter systems.
 https://doi.org/10.1002/wcms.1159

 VandeVondele, J; Hutter, J. 
 JOURNAL OF CHEMICAL PHYSICS, 127 (11), 114105 (2007). 
 Gaussian basis sets for accurate calculations on molecular systems in
 gas and condensed phases.
 https://doi.org/10.1063/1.2770708

 Krack, M. 
 THEORETICAL CHEMISTRY ACCOUNTS, 114 (1-3), 145-152 (2005). 
 Pseudopotentials for H to Kr optimized for gradient-corrected
 exchange-correlation functionals.
 https://doi.org/10.1007/s00214-005-0655-y

 VandeVondele, J; Krack, M; Mohamed, F; Parrinello, M; Chassaing, T;
 Hutter, J. COMPUTER PHYSICS COMMUNICATIONS, 167 (2), 103-128 (2005). 
 QUICKSTEP: Fast and accurate density functional calculations using a
 mixed Gaussian and plane waves approach.
 https://doi.org/10.1016/j.cpc.2004.12.014

 Frigo, M; Johnson, SG. 
 PROCEEDINGS OF THE IEEE, 93 (2), 216-231 (2005). 
 The design and implementation of FFTW3.
 https://doi.org/10.1109/JPROC.2004.840301

 Hartwigsen, C; Goedecker, S; Hutter, J. 
 PHYSICAL REVIEW B, 58 (7), 3641-3662 (1998). 
 Relativistic separable dual-space Gaussian pseudopotentials from H to Rn.
 https://doi.org/10.1103/PhysRevB.58.3641

 Lippert, G; Hutter, J; Parrinello, M. 
 MOLECULAR PHYSICS, 92 (3), 477-487 (1997). 
 A hybrid Gaussian and plane wave density functional scheme.
 https://doi.org/10.1080/002689797170220

 Perdew, JP; Burke, K; Ernzerhof, M. 
 PHYSICAL REVIEW LETTERS, 77 (18), 3865-3868 (1996). 
 Generalized gradient approximation made simple.
 https://doi.org/10.1103/PhysRevLett.77.3865

 Goedecker, S; Teter, M; Hutter, J. 
 PHYSICAL REVIEW B, 54 (3), 1703-1710 (1996). 
 Separable dual-space Gaussian pseudopotentials.
 https://doi.org/10.1103/PhysRevB.54.1703


 -------------------------------------------------------------------------------
 -                                                                             -
 -                                T I M I N G                                  -
 -                                                                             -
 -------------------------------------------------------------------------------
 SUBROUTINE                       CALLS  ASD         SELF TIME        TOTAL TIME
                                MAXIMUM       AVERAGE  MAXIMUM  AVERAGE  MAXIMUM
 CP2K                                 1  1.0    0.017    0.024   92.506   92.507
 cp_cell_opt                          1  2.0    0.000    0.001   92.386   92.387
 geoopt_bfgs                          1  3.0    0.004    0.004   92.386   92.387
 cp_eval_at                          11  4.0    0.003    0.003   92.282   92.283
 qs_forces                           11  5.0    0.003    0.004   92.278   92.278
 qs_energies                         11  6.0    0.007    0.007   78.412   78.418
 scf_env_do_scf                      11  7.0    0.000    0.001   71.550   71.552
 scf_env_do_scf_inner_loop           99  8.0    0.015    0.017   71.549   71.552
 rebuild_ks_matrix                  110  9.7    0.001    0.001    2.688   39.981
 qs_ks_build_kohn_sham_matrix       110 10.7    0.034    0.035    2.687   39.980
 sum_up_and_integrate               110 11.7    0.001    0.001    2.017   39.295
 integrate_v_rspace                 110 12.7    0.003    0.040    2.016   39.294
 grid_integrate_task_list           110 13.7    1.098   38.354    1.098   38.354
 rs_pw_transfer                     902 13.3    0.006    0.007   35.817   36.870
 mp_waitall_1                     97482 15.1   35.187   36.247   35.187   36.247
 rs_pw_transfer_RS2PW_100           121 12.8    0.139    0.148   34.744   35.802
 qs_rho_update_rho                  110  9.0    0.001    0.001   35.199   35.202
 calculate_rho_elec                 110 10.0    0.004    0.088   35.198   35.201
 density_rs2pw                      110 11.0    0.003    0.004   34.015   34.986
 grid_collocate_task_list           110 11.0    1.176   34.165    1.176   34.165
 qs_scf_new_mos_kp                   99  9.0    0.001    0.001   33.060   33.894
 do_general_diag_kp                  99 10.0    0.009    0.010   33.060   33.893
 dbcsr_desymmetrize_deep           5690 11.3    0.069    0.088   31.527   32.406
 qs_ks_update_qs_env                 99  9.0    0.001    0.001    2.757   31.262
 mp_alltoall_i22                  12963 12.5   29.898   30.804   29.898   30.804
 qs_ks_update_qs_env_forces          11  6.0    0.000    0.000    0.528    9.316
 mp_sum_dm                          669  6.6    8.865    9.131    8.865    9.131
 init_scf_run                        11  7.0    0.000    0.001    4.989    4.993
 scf_env_initial_rho_setup           11  8.0    0.001    0.001    4.989    4.993
 mp_sum_d                         51766 12.6    4.660    4.958    4.660    4.958
 copy_dbcsr_to_fm                  4106 10.4    0.033    0.036    4.501    4.516
 build_core_hamiltonian_matrix_      11  6.0    0.005    0.006    0.407    4.435
 calculate_ecore_overlap             22  7.0    0.000    0.000    4.117    4.409
 dbcsr_complete_redistribute       7273 11.7    0.170    0.247    4.078    4.126
 write_kpoints_restart               99  9.0    0.007    0.078    3.432    3.435
 mp_alltoall_d11v                 38889 13.0    2.328    2.343    2.328    2.343
 mp_alltoall_i11v                 27509 12.6    2.145    2.148    2.145    2.148
 -------------------------------------------------------------------------------

 The number of warnings for this run is : 1
 
 -------------------------------------------------------------------------------
  **** **** ******  **  PROGRAM ENDED AT                 2022-01-04 08:21:56.155
 ***** ** ***  *** **   PROGRAM RAN ON                                   gcn2717
 **    ****   ******    PROGRAM RAN BY                                  nichdsas
 ***** **    ** ** **   PROGRAM PROCESS ID                                455196
  **** **  *******  **  PROGRAM STOPPED IN /scratch/usr/nichdsas/cp2k-parser-tes
                                           ts/9.1/cell_opt_walltime_low
