 DBCSR| CPU Multiplication driver                                           XSMM
 DBCSR| Multrec recursion limit                                              512
 DBCSR| Multiplication stack size                                           1000
 DBCSR| Maximum elements for images                                    UNLIMITED
 DBCSR| Multiplicative factor virtual images                                   1
 DBCSR| Use multiplication densification                                       T
 DBCSR| Multiplication size stacks                                             3
 DBCSR| Use memory pool for CPU allocation                                     F
 DBCSR| Number of 3D layers                                               SINGLE
 DBCSR| Use MPI memory allocation                                              F
 DBCSR| Use RMA algorithm                                                      F
 DBCSR| Use Communication thread                                               T
 DBCSR| Communication thread load                                             83
 DBCSR| MPI: My node id                                                        0
 DBCSR| MPI: Number of nodes                                                  24
 DBCSR| OMP: Current number of threads                                         2
 DBCSR| OMP: Max number of threads                                             2
 DBCSR| Split modifier for TAS multiplication algorithm                  1.0E+00


  **** **** ******  **  PROGRAM STARTED AT               2022-01-03 14:08:35.674
 ***** ** ***  *** **   PROGRAM STARTED ON                               mpcl014
 **    ****   ******    PROGRAM STARTED BY                              pubo1141
 ***** **    ** ** **   PROGRAM PROCESS ID                                 19615
  **** **  *******  **  PROGRAM STARTED IN /user/pubo1141/simulations/aiida_test
                                           s/cp2k_8.1/md_nvt_low

 CP2K| version string:                                          CP2K version 8.1
 CP2K| source code revision number:                                  git:0b61f2f
 CP2K| cp2kflags: omp libint fftw3 libxc parallel mpi3 scalapack xsmm spglib mkl
 CP2K|             libvori libbqb
 CP2K| is freely available from                            https://www.cp2k.org/
 CP2K| Program compiled at                         Thu May 27 13:34:22 CEST 2021
 CP2K| Program compiled on                                               hpcl001
 CP2K| Program compiled for                                        carl-mkl-ompi
 CP2K| Data directory path            /user/pubo1141/software/cp2k/cp2k-8.1/data
 CP2K| Input file name                                                 aiida.inp

 GLOBAL| Force Environment number                                              1
 GLOBAL| Basis set file name                                        BASIS_MOLOPT
 GLOBAL| Potential file name                                      GTH_POTENTIALS
 GLOBAL| MM Potential file name                                     MM_POTENTIAL
 GLOBAL| Coordinate file name                                   aiida.coords.xyz
 GLOBAL| Method name                                                        CP2K
 GLOBAL| Project name                                                      aiida
 GLOBAL| Preferred FFT library                                             FFTW3
 GLOBAL| Preferred diagonalization lib.                                       SL
 GLOBAL| Run type                                                             MD
 GLOBAL| All-to-all communication in single precision                          F
 GLOBAL| FFTs using library dependent lengths                                  F
 GLOBAL| Global print level                                                  LOW
 GLOBAL| MPI I/O enabled                                                       T
 GLOBAL| Total number of message passing processes                            24
 GLOBAL| Number of threads for this process                                    2
 GLOBAL| This output is from process                                           0
 GLOBAL| CPU model name                Intel(R) Xeon(R) CPU E5-2650 v4 @ 2.20GHz
 GLOBAL| CPUID                                                              1002
 GLOBAL| Compiled for CPUID                                                    0

 *** HINT in environment.F:802 :: The compiler target flags (generic) used ***
 *** to build this binary cannot exploit all extensions of this CPU model  ***
 *** (x86_avx2). Consider compiler target flags as part of FCFLAGS and     ***
 *** CFLAGS (ARCH file).                                                   ***


 MEMORY| system memory details [Kb]
 MEMORY|                        rank 0           min           max       average
 MEMORY| MemTotal            131594208     131594208     131594208     131594208
 MEMORY| MemFree              28273176       8939320      28273688      18609783
 MEMORY| Buffers                142964        142964        203644        173304
 MEMORY| Cached               90065092      90065092     108839680      99452386
 MEMORY| Slab                  4198064       3972092       4198064       4085078
 MEMORY| SReclaimable          2268608       2268608       2408400       2338504
 MEMORY| MemLikelyFree       120749840     120391044     120750352     120573977


 GENERATE|  Preliminary Number of Bonds generated:                             0
 GENERATE|  Achieved consistency in connectivity generation.

 *******************************************************************************
 *******************************************************************************
 **                                                                           **
 **     #####                         ##              ##                      **
 **    ##   ##            ##          ##              ##                      **
 **   ##     ##                       ##            ######                    **
 **   ##     ##  ##   ##  ##   #####  ##  ##   ####   ##    #####    #####    **
 **   ##     ##  ##   ##  ##  ##      ## ##   ##      ##   ##   ##  ##   ##   **
 **   ##  ## ##  ##   ##  ##  ##      ####     ###    ##   ######   ######    **
 **    ##  ###   ##   ##  ##  ##      ## ##      ##   ##   ##       ##        **
 **     #######   #####   ##   #####  ##  ##  ####    ##    #####   ##        **
 **           ##                                                    ##        **
 **                                                                           **
 **                                                ... make the atoms dance   **
 **                                                                           **
 **            Copyright (C) by CP2K developers group (2000 - 2020)           **
 **                      J. Chem. Phys. 152, 194103 (2020)                    **
 **                                                                           **
 *******************************************************************************


 TOTAL NUMBERS AND MAXIMUM NUMBERS

  Total number of            - Atomic kinds:                                   2
                             - Atoms:                                        192
                             - Shell sets:                                   192
                             - Shells:                                       704
                             - Primitive Cartesian functions:               1344
                             - Cartesian basis functions:                   1536
                             - Spherical basis functions:                   1472

  Maximum angular momentum of- Orbital basis functions:                        2
                             - Local part of the GTH pseudopotential:          2
                             - Non-local part of the GTH pseudopotential:      0


 SCF PARAMETERS         Density guess:                                    ATOMIC
                        --------------------------------------------------------
                        max_scf:                                              30
                        max_scf_history:                                       0
                        max_diis:                                              4
                        --------------------------------------------------------
                        eps_scf:                                        1.00E-05
                        eps_scf_history:                                0.00E+00
                        eps_diis:                                       1.00E-01
                        eps_eigval:                                     1.00E-05
                        --------------------------------------------------------
                        level_shift [a.u.]:                                 0.00
                        --------------------------------------------------------
                        Outer loop SCF in use 
                        No variables optimised in outer loop
                        eps_scf                                         1.00E-06
                        max_scf                                                5
                        No outer loop optimization
                        step_size                                       5.00E-01

 MD_PAR| Molecular dynamics protocol (MD input parameters)
 MD_PAR| Ensemble type                                                       NVT
 MD_PAR| Number of time steps                                                  5
 MD_PAR| Time step [fs]                                                 0.500000
 MD_PAR| Temperature [K]                                              300.000000
 MD_PAR| Temperature tolerance [K]                                      0.000000
 MD_PAR| Print MD information every                                    1 step(s)
 MD_PAR| File type   Print frequency [steps]                          File names
 MD_PAR| Coordinates          1                                  aiida-pos-1.xyz
 MD_PAR| Velocities           1                                  aiida-vel-1.xyz
 MD_PAR| Energies             1                                     aiida-1.ener
 MD_PAR| Dump                20                                  aiida-1.restart

 ROT| Rotational analysis information
 ROT| Principal axes and moments of inertia [a.u.]
 ROT|                           1                   2                   3
 ROT| Eigenvalues      2.05585957588E+08   2.18420756715E+08   2.44815971865E+08
 ROT|      x              0.422535724749     -0.517084350433      0.744370429187
 ROT|      y              0.905625145748      0.208115968654     -0.369500796994
 ROT|      z              0.036147706690      0.830247865477      0.556221021872
 ROT| Number of rotovibrational vectors                                        6

 DOF| Calculation of degrees of freedom
 DOF| Number of atoms                                                        192
 DOF| Number of intramolecular constraints                                     0
 DOF| Number of intermolecular constraints                                     0
 DOF| Invariants (translations + rotations)                                    0
 DOF| Degrees of freedom                                                     576

 DOF| Restraints information
 DOF| Number of intramolecular restraints                                      0
 DOF| Number of intermolecular restraints                                      0

 THERMOSTAT| Thermostat information for PARTICLES
 THERMOSTAT| Type of thermostat                               Nose-Hoover-Chains
 THERMOSTAT| Nose-Hoover-Chain length                                          3
 THERMOSTAT| Nose-Hoover-Chain time constant [fs]                    1000.000000
 THERMOSTAT| Order of Yoshida integrator                                       3
 THERMOSTAT| Number of multiple time steps                                     2
 THERMOSTAT| Initial potential energy                         0.000000000000E+00
 THERMOSTAT| Initial kinetic energy                           0.273612845660E+00
 THERMOSTAT| End of thermostat information for PARTICLES

 MD_VEL| Velocities initialization
 MD_VEL| Initial temperature [K]                                      300.000000
 MD_VEL| COM velocity            -0.0000000000    -0.0000000000     0.0000000000

 Number of electrons:                                                        512
 Number of occupied orbitals:                                                256
 Number of molecular orbitals:                                               256

 Number of orbital functions:                                               1472
 Number of independent orbital functions:                                   1472

 Extrapolation method: initial_guess


 SCF WAVEFUNCTION OPTIMIZATION

  ----------------------------------- OT ---------------------------------------
  Minimizer      : DIIS                : direct inversion
                                         in the iterative subspace
                                         using   7 DIIS vectors
                                         safer DIIS on
  Preconditioner : FULL_SINGLE_INVERSE : inversion of 
                                         H + eS - 2*(Sc)(c^T*H*c+const)(Sc)^T
  Precond_solver : DEFAULT
  stepsize       :    0.08000000                  energy_gap     :    0.08000000
  eps_taylor     :   0.10000E-15                  max_taylor     :             4
  ----------------------------------- OT ---------------------------------------

  Step     Update method      Time    Convergence         Total energy    Change
  ------------------------------------------------------------------------------
     1 OT DIIS     0.80E-01    2.7     0.03061904     -1055.5512986969 -1.06E+03
     2 OT DIIS     0.80E-01    2.8     0.02256020     -1076.3314309455 -2.08E+01
     3 OT DIIS     0.80E-01    2.7     0.01821838     -1086.8221407848 -1.05E+01
     4 OT DIIS     0.80E-01    2.8     0.01177433     -1095.4711931625 -8.65E+00
     5 OT DIIS     0.80E-01    2.7     0.00644009     -1099.7812713300 -4.31E+00
     6 OT DIIS     0.80E-01    2.6     0.00452701     -1101.1091173498 -1.33E+00
     7 OT DIIS     0.80E-01    2.7     0.00360908     -1101.8431257293 -7.34E-01
     8 OT DIIS     0.80E-01    2.6     0.00298303     -1102.3262586452 -4.83E-01
     9 OT DIIS     0.80E-01    2.6     0.00259174     -1102.6375745946 -3.11E-01
    10 OT DIIS     0.80E-01    2.6     0.00199772     -1102.9298747301 -2.92E-01
    11 OT DIIS     0.80E-01    2.6     0.00134874     -1103.1214142309 -1.92E-01
    12 OT DIIS     0.80E-01    2.6     0.00127504     -1103.1645613956 -4.31E-02
    13 OT DIIS     0.80E-01    2.6     0.00080027     -1103.2556407011 -9.11E-02
    14 OT DIIS     0.80E-01    2.6     0.00064034     -1103.2874696234 -3.18E-02
    15 OT DIIS     0.80E-01    2.7     0.00065387     -1103.3000502498 -1.26E-02
    16 OT DIIS     0.80E-01    2.6     0.00037143     -1103.3231718934 -2.31E-02
    17 OT DIIS     0.80E-01    2.7     0.00026864     -1103.3356753174 -1.25E-02
    18 OT DIIS     0.80E-01    2.6     0.00020499     -1103.3417780902 -6.10E-03
    19 OT DIIS     0.80E-01    2.6     0.00016740     -1103.3445739740 -2.80E-03
    20 OT DIIS     0.80E-01    2.6     0.00013800     -1103.3470337043 -2.46E-03
    21 OT DIIS     0.80E-01    2.6     0.00011016     -1103.3489052528 -1.87E-03
    22 OT DIIS     0.80E-01    2.6     0.00009431     -1103.3501559232 -1.25E-03
    23 OT DIIS     0.80E-01    2.6     0.00008287     -1103.3510744192 -9.18E-04
    24 OT DIIS     0.80E-01    2.6     0.00007350     -1103.3518679888 -7.94E-04
    25 OT DIIS     0.80E-01    2.6     0.00006441     -1103.3526346040 -7.67E-04
    26 OT DIIS     0.80E-01    2.6     0.00005767     -1103.3531935413 -5.59E-04
    27 OT DIIS     0.80E-01    2.7     0.00005235     -1103.3536533648 -4.60E-04
    28 OT DIIS     0.80E-01    2.6     0.00004692     -1103.3541019788 -4.49E-04
    29 OT DIIS     0.80E-01    2.6     0.00004252     -1103.3544491189 -3.47E-04
    30 OT DIIS     0.80E-01    2.8     0.00003861     -1103.3547765542 -3.27E-04

  Leaving inner SCF loop after reaching    30 steps.


  Electronic density on regular grids:       -511.9999997254        0.0000002746
  Core density on regular grids:              511.9999984883       -0.0000015117
  Total charge density on r-space grids:       -0.0000012371
  Total charge density g-space grids:          -0.0000012371

  Overlap energy of the core charge distribution:               0.00000237129466
  Self energy of the core charge distribution:              -2838.21791979120962
  Core Hamiltonian energy:                                    827.41529931794264
  Hartree energy:                                            1179.28879418531051
  Exchange-correlation energy:                               -271.59515103689853
  Dispersion energy:                                           -0.24580160066492

  Total energy:                                             -1103.35477655422528

  outer SCF iter =    1 RMS gradient =   0.39E-04 energy =      -1103.3547765542

  ----------------------------------- OT ---------------------------------------
  Minimizer      : DIIS                : direct inversion
                                         in the iterative subspace
                                         using   7 DIIS vectors
                                         safer DIIS on
  Preconditioner : FULL_SINGLE_INVERSE : inversion of 
                                         H + eS - 2*(Sc)(c^T*H*c+const)(Sc)^T
  Precond_solver : DEFAULT
  stepsize       :    0.08000000                  energy_gap     :    0.08000000
  eps_taylor     :   0.10000E-15                  max_taylor     :             4
  ----------------------------------- OT ---------------------------------------

  Step     Update method      Time    Convergence         Total energy    Change
  ------------------------------------------------------------------------------
     1 OT DIIS     0.80E-01    5.8     0.00019120     -1103.3550374636 -2.61E-04
     2 OT DIIS     0.80E-01    2.7     0.00012685     -1103.3559464156 -9.09E-04
     3 OT DIIS     0.80E-01    2.6     0.00003597     -1103.3566822349 -7.36E-04
     4 OT DIIS     0.80E-01    2.6     0.00001561     -1103.3567390931 -5.69E-05
     5 OT DIIS     0.80E-01    2.6     0.00000648     -1103.3567492222 -1.01E-05

  *** SCF run converged in     5 steps ***


  Electronic density on regular grids:       -511.9999997254        0.0000002746
  Core density on regular grids:              511.9999984883       -0.0000015117
  Total charge density on r-space grids:       -0.0000012371
  Total charge density g-space grids:          -0.0000012371

  Overlap energy of the core charge distribution:               0.00000237129466
  Self energy of the core charge distribution:              -2838.21791979120962
  Core Hamiltonian energy:                                    827.41162949711099
  Hartree energy:                                            1179.29090416072040
  Exchange-correlation energy:                               -271.59556385940459
  Dispersion energy:                                           -0.24580160066492

  Total energy:                                             -1103.35674922215321

  outer SCF iter =    2 RMS gradient =   0.65E-05 energy =      -1103.3567492222

  ----------------------------------- OT ---------------------------------------
  Minimizer      : DIIS                : direct inversion
                                         in the iterative subspace
                                         using   7 DIIS vectors
                                         safer DIIS on
  Preconditioner : FULL_SINGLE_INVERSE : inversion of 
                                         H + eS - 2*(Sc)(c^T*H*c+const)(Sc)^T
  Precond_solver : DEFAULT
  stepsize       :    0.08000000                  energy_gap     :    0.08000000
  eps_taylor     :   0.10000E-15                  max_taylor     :             4
  ----------------------------------- OT ---------------------------------------

  Step     Update method      Time    Convergence         Total energy    Change
  ------------------------------------------------------------------------------
     1 OT DIIS     0.80E-01    5.3     0.00000269     -1103.3567510253 -1.80E-06

  *** SCF run converged in     1 steps ***


  Electronic density on regular grids:       -511.9999997254        0.0000002746
  Core density on regular grids:              511.9999984883       -0.0000015117
  Total charge density on r-space grids:       -0.0000012371
  Total charge density g-space grids:          -0.0000012371

  Overlap energy of the core charge distribution:               0.00000237129466
  Self energy of the core charge distribution:              -2838.21791979120962
  Core Hamiltonian energy:                                    827.41205617756009
  Hartree energy:                                            1179.29054790118244
  Exchange-correlation energy:                               -271.59563608343745
  Dispersion energy:                                           -0.24580160066492

  Total energy:                                             -1103.35675102527489

  outer SCF iter =    3 RMS gradient =   0.27E-05 energy =      -1103.3567510253

  ----------------------------------- OT ---------------------------------------
  Minimizer      : DIIS                : direct inversion
                                         in the iterative subspace
                                         using   7 DIIS vectors
                                         safer DIIS on
  Preconditioner : FULL_SINGLE_INVERSE : inversion of 
                                         H + eS - 2*(Sc)(c^T*H*c+const)(Sc)^T
  Precond_solver : DEFAULT
  stepsize       :    0.08000000                  energy_gap     :    0.08000000
  eps_taylor     :   0.10000E-15                  max_taylor     :             4
  ----------------------------------- OT ---------------------------------------

  Step     Update method      Time    Convergence         Total energy    Change
  ------------------------------------------------------------------------------
     1 OT DIIS     0.80E-01    7.9     0.00000189     -1103.3567512086 -1.83E-07

  *** SCF run converged in     1 steps ***


  Electronic density on regular grids:       -511.9999997254        0.0000002746
  Core density on regular grids:              511.9999984883       -0.0000015117
  Total charge density on r-space grids:       -0.0000012371
  Total charge density g-space grids:          -0.0000012371

  Overlap energy of the core charge distribution:               0.00000237129466
  Self energy of the core charge distribution:              -2838.21791979120962
  Core Hamiltonian energy:                                    827.41199496841546
  Hartree energy:                                            1179.29059737844295
  Exchange-correlation energy:                               -271.59562453485233
  Dispersion energy:                                           -0.24580160066492

  Total energy:                                             -1103.35675120857377

  outer SCF iter =    4 RMS gradient =   0.19E-05 energy =      -1103.3567512086

  ----------------------------------- OT ---------------------------------------
  Minimizer      : DIIS                : direct inversion
                                         in the iterative subspace
                                         using   7 DIIS vectors
                                         safer DIIS on
  Preconditioner : FULL_SINGLE_INVERSE : inversion of 
                                         H + eS - 2*(Sc)(c^T*H*c+const)(Sc)^T
  Precond_solver : DEFAULT
  stepsize       :    0.08000000                  energy_gap     :    0.08000000
  eps_taylor     :   0.10000E-15                  max_taylor     :             4
  ----------------------------------- OT ---------------------------------------

  Step     Update method      Time    Convergence         Total energy    Change
  ------------------------------------------------------------------------------
     1 OT DIIS     0.80E-01   10.8     0.00000138     -1103.3567513017 -9.32E-08

  *** SCF run converged in     1 steps ***


  Electronic density on regular grids:       -511.9999997254        0.0000002746
  Core density on regular grids:              511.9999984883       -0.0000015117
  Total charge density on r-space grids:       -0.0000012371
  Total charge density g-space grids:          -0.0000012371

  Overlap energy of the core charge distribution:               0.00000237129466
  Self energy of the core charge distribution:              -2838.21791979120962
  Core Hamiltonian energy:                                    827.41201479619963
  Hartree energy:                                            1179.29058099333588
  Exchange-correlation energy:                               -271.59562807069443
  Dispersion energy:                                           -0.24580160066492

  Total energy:                                             -1103.35675130173877

  outer SCF iter =    5 RMS gradient =   0.14E-05 energy =      -1103.3567513017

  ----------------------------------- OT ---------------------------------------
  Minimizer      : DIIS                : direct inversion
                                         in the iterative subspace
                                         using   7 DIIS vectors
                                         safer DIIS on
  Preconditioner : FULL_SINGLE_INVERSE : inversion of 
                                         H + eS - 2*(Sc)(c^T*H*c+const)(Sc)^T
  Precond_solver : DEFAULT
  stepsize       :    0.08000000                  energy_gap     :    0.08000000
  eps_taylor     :   0.10000E-15                  max_taylor     :             4
  ----------------------------------- OT ---------------------------------------

  Step     Update method      Time    Convergence         Total energy    Change
  ------------------------------------------------------------------------------
     1 OT DIIS     0.80E-01   13.5     0.00000103     -1103.3567513519 -5.02E-08

  *** SCF run converged in     1 steps ***


  Electronic density on regular grids:       -511.9999997254        0.0000002746
  Core density on regular grids:              511.9999984883       -0.0000015117
  Total charge density on r-space grids:       -0.0000012371
  Total charge density g-space grids:          -0.0000012371

  Overlap energy of the core charge distribution:               0.00000237129466
  Self energy of the core charge distribution:              -2838.21791979120962
  Core Hamiltonian energy:                                    827.41201375045785
  Hartree energy:                                            1179.29058160887371
  Exchange-correlation energy:                               -271.59562769068293
  Dispersion energy:                                           -0.24580160066492

  Total energy:                                             -1103.35675135193128

  outer SCF iter =    6 RMS gradient =   0.10E-05 energy =      -1103.3567513519
  outer SCF loop FAILED to converge after    6 iterations or   39 steps


 *** WARNING in qs_scf.F:576 :: SCF run NOT converged ***


 ENERGY| Total FORCE_EVAL ( QS ) energy [a.u.]:            -1103.356751379706111

 MD_INI| MD initialization
 MD_INI| Potential energy [hartree]                          -0.110335675138E+04
 MD_INI| Kinetic energy [hartree]                             0.273612845660E+00
 MD_INI| Temperature [K]                                              300.000000
 MD_INI| Cell volume [bohr^3]                                 1.292889458088E+04
 MD_INI| Cell volume [ang^3]                                  1.915864488000E+03
 MD_INI| Cell lengths [bohr]      2.34703986E+01  2.34703986E+01  2.34703986E+01
 MD_INI| Cell lengths [ang]       1.24200000E+01  1.24200000E+01  1.24200000E+01
 MD_INI| Cell angles [deg]        9.00000000E+01  9.00000000E+01  9.00000000E+01

 Number of electrons:                                                        512
 Number of occupied orbitals:                                                256
 Number of molecular orbitals:                                               256

 Number of orbital functions:                                               1472
 Number of independent orbital functions:                                   1472

 Extrapolation method: ASPC


 SCF WAVEFUNCTION OPTIMIZATION

  ----------------------------------- OT ---------------------------------------
  Minimizer      : DIIS                : direct inversion
                                         in the iterative subspace
                                         using   7 DIIS vectors
                                         safer DIIS on
  Preconditioner : FULL_SINGLE_INVERSE : inversion of 
                                         H + eS - 2*(Sc)(c^T*H*c+const)(Sc)^T
  Precond_solver : DEFAULT
  stepsize       :    0.08000000                  energy_gap     :    0.08000000
  eps_taylor     :   0.10000E-15                  max_taylor     :             4
  ----------------------------------- OT ---------------------------------------

  Step     Update method      Time    Convergence         Total energy    Change
  ------------------------------------------------------------------------------
     1 OT DIIS     0.80E-01    2.0     0.00033611     -1103.3542696410 -1.10E+03
     2 OT DIIS     0.80E-01    2.7     0.00019244     -1103.3568415796 -2.57E-03
     3 OT DIIS     0.80E-01    2.6     0.00008535     -1103.3580749402 -1.23E-03
     4 OT DIIS     0.80E-01    2.5     0.00002900     -1103.3583550397 -2.80E-04
     5 OT DIIS     0.80E-01    2.6     0.00000814     -1103.3583882467 -3.32E-05

  *** SCF run converged in     5 steps ***


  Electronic density on regular grids:       -511.9999997177        0.0000002823
  Core density on regular grids:              511.9999984929       -0.0000015071
  Total charge density on r-space grids:       -0.0000012249
  Total charge density g-space grids:          -0.0000012249

  Overlap energy of the core charge distribution:               0.00000241497652
  Self energy of the core charge distribution:              -2838.21791979120962
  Core Hamiltonian energy:                                    827.51653957200199
  Hartree energy:                                            1179.21541645026309
  Exchange-correlation energy:                               -271.62662055706323
  Dispersion energy:                                           -0.24580633571241

  Total energy:                                             -1103.35838824674352

  outer SCF iter =    1 RMS gradient =   0.81E-05 energy =      -1103.3583882467

  ----------------------------------- OT ---------------------------------------
  Minimizer      : DIIS                : direct inversion
                                         in the iterative subspace
                                         using   7 DIIS vectors
                                         safer DIIS on
  Preconditioner : FULL_SINGLE_INVERSE : inversion of 
                                         H + eS - 2*(Sc)(c^T*H*c+const)(Sc)^T
  Precond_solver : DEFAULT
  stepsize       :    0.08000000                  energy_gap     :    0.08000000
  eps_taylor     :   0.10000E-15                  max_taylor     :             4
  ----------------------------------- OT ---------------------------------------

  Step     Update method      Time    Convergence         Total energy    Change
  ------------------------------------------------------------------------------
     1 OT DIIS     0.80E-01    5.3     0.00000323     -1103.3583905678 -2.32E-06

  *** SCF run converged in     1 steps ***


  Electronic density on regular grids:       -511.9999997177        0.0000002823
  Core density on regular grids:              511.9999984929       -0.0000015071
  Total charge density on r-space grids:       -0.0000012249
  Total charge density g-space grids:          -0.0000012249

  Overlap energy of the core charge distribution:               0.00000241497652
  Self energy of the core charge distribution:              -2838.21791979120962
  Core Hamiltonian energy:                                    827.51500807507182
  Hartree energy:                                            1179.21669665074296
  Exchange-correlation energy:                               -271.62637158165717
  Dispersion energy:                                           -0.24580633571241

  Total energy:                                             -1103.35839056778764

  outer SCF iter =    2 RMS gradient =   0.32E-05 energy =      -1103.3583905678

  ----------------------------------- OT ---------------------------------------
  Minimizer      : DIIS                : direct inversion
                                         in the iterative subspace
                                         using   7 DIIS vectors
                                         safer DIIS on
  Preconditioner : FULL_SINGLE_INVERSE : inversion of 
                                         H + eS - 2*(Sc)(c^T*H*c+const)(Sc)^T
  Precond_solver : DEFAULT
  stepsize       :    0.08000000                  energy_gap     :    0.08000000
  eps_taylor     :   0.10000E-15                  max_taylor     :             4
  ----------------------------------- OT ---------------------------------------

  Step     Update method      Time    Convergence         Total energy    Change
  ------------------------------------------------------------------------------
     1 OT DIIS     0.80E-01    8.0     0.00000203     -1103.3583908183 -2.50E-07

  *** SCF run converged in     1 steps ***


  Electronic density on regular grids:       -511.9999997177        0.0000002823
  Core density on regular grids:              511.9999984929       -0.0000015071
  Total charge density on r-space grids:       -0.0000012249
  Total charge density g-space grids:          -0.0000012249

  Overlap energy of the core charge distribution:               0.00000241497652
  Self energy of the core charge distribution:              -2838.21791979120962
  Core Hamiltonian energy:                                    827.51520099283152
  Hartree energy:                                            1179.21654297481177
  Exchange-correlation energy:                               -271.62641107397457
  Dispersion energy:                                           -0.24580633571241

  Total energy:                                             -1103.35839081827658

  outer SCF iter =    3 RMS gradient =   0.20E-05 energy =      -1103.3583908183

  ----------------------------------- OT ---------------------------------------
  Minimizer      : DIIS                : direct inversion
                                         in the iterative subspace
                                         using   7 DIIS vectors
                                         safer DIIS on
  Preconditioner : FULL_SINGLE_INVERSE : inversion of 
                                         H + eS - 2*(Sc)(c^T*H*c+const)(Sc)^T
  Precond_solver : DEFAULT
  stepsize       :    0.08000000                  energy_gap     :    0.08000000
  eps_taylor     :   0.10000E-15                  max_taylor     :             4
  ----------------------------------- OT ---------------------------------------

  Step     Update method      Time    Convergence         Total energy    Change
  ------------------------------------------------------------------------------
     1 OT DIIS     0.80E-01   10.7     0.00000135     -1103.3583909212 -1.03E-07

  *** SCF run converged in     1 steps ***


  Electronic density on regular grids:       -511.9999997177        0.0000002823
  Core density on regular grids:              511.9999984929       -0.0000015071
  Total charge density on r-space grids:       -0.0000012249
  Total charge density g-space grids:          -0.0000012249

  Overlap energy of the core charge distribution:               0.00000241497652
  Self energy of the core charge distribution:              -2838.21791979120962
  Core Hamiltonian energy:                                    827.51516329940512
  Hartree energy:                                            1179.21657769953708
  Exchange-correlation energy:                               -271.62640820815739
  Dispersion energy:                                           -0.24580633571241

  Total energy:                                             -1103.35839092116044

  outer SCF iter =    4 RMS gradient =   0.13E-05 energy =      -1103.3583909212

  ----------------------------------- OT ---------------------------------------
  Minimizer      : DIIS                : direct inversion
                                         in the iterative subspace
                                         using   7 DIIS vectors
                                         safer DIIS on
  Preconditioner : FULL_SINGLE_INVERSE : inversion of 
                                         H + eS - 2*(Sc)(c^T*H*c+const)(Sc)^T
  Precond_solver : DEFAULT
  stepsize       :    0.08000000                  energy_gap     :    0.08000000
  eps_taylor     :   0.10000E-15                  max_taylor     :             4
  ----------------------------------- OT ---------------------------------------

  Step     Update method      Time    Convergence         Total energy    Change
  ------------------------------------------------------------------------------
     1 OT DIIS     0.80E-01   13.4     0.00000092     -1103.3583909672 -4.60E-08

  *** SCF run converged in     1 steps ***


  Electronic density on regular grids:       -511.9999997177        0.0000002823
  Core density on regular grids:              511.9999984929       -0.0000015071
  Total charge density on r-space grids:       -0.0000012249
  Total charge density g-space grids:          -0.0000012249

  Overlap energy of the core charge distribution:               0.00000241497652
  Self energy of the core charge distribution:              -2838.21791979120962
  Core Hamiltonian energy:                                    827.51514072743032
  Hartree energy:                                            1179.21659944487237
  Exchange-correlation energy:                               -271.62640742751762
  Dispersion energy:                                           -0.24580633571241

  Total energy:                                             -1103.35839096716040

  outer SCF iter =    5 RMS gradient =   0.92E-06 energy =      -1103.3583909672
  outer SCF loop converged in   5 iterations or    9 steps


 ENERGY| Total FORCE_EVAL ( QS ) energy [a.u.]:            -1103.358390988551491

 MD| ***************************************************************************
 MD| Step number                                                               1
 MD| Time [fs]                                                          0.500000
 MD| Conserved quantity [hartree]                            -0.110280949560E+04
 MD| ---------------------------------------------------------------------------
 MD|                                          Instantaneous             Averages
 MD| CPU time per MD step [s]                    140.028507           140.028507
 MD| Energy drift per atom [K]           0.494770119039E-01   0.000000000000E+00
 MD| Potential energy [hartree]         -0.110335839099E+04  -0.110335839099E+04
 MD| Kinetic energy [hartree]            0.275296282128E+00   0.275296282128E+00
 MD| Temperature [K]                             301.845787           301.845787
 MD| ***************************************************************************

 Number of electrons:                                                        512
 Number of occupied orbitals:                                                256
 Number of molecular orbitals:                                               256

 Number of orbital functions:                                               1472
 Number of independent orbital functions:                                   1472

 Extrapolation method: ASPC


 SCF WAVEFUNCTION OPTIMIZATION

  ----------------------------------- OT ---------------------------------------
  Minimizer      : DIIS                : direct inversion
                                         in the iterative subspace
                                         using   7 DIIS vectors
                                         safer DIIS on
  Preconditioner : FULL_SINGLE_INVERSE : inversion of 
                                         H + eS - 2*(Sc)(c^T*H*c+const)(Sc)^T
  Precond_solver : DEFAULT
  stepsize       :    0.08000000                  energy_gap     :    0.08000000
  eps_taylor     :   0.10000E-15                  max_taylor     :             4
  ----------------------------------- OT ---------------------------------------

  Step     Update method      Time    Convergence         Total energy    Change
  ------------------------------------------------------------------------------
     1 OT DIIS     0.80E-01    2.0     0.00009536     -1103.3611434764 -1.10E+03
     2 OT DIIS     0.80E-01    2.9     0.00005051     -1103.3613416099 -1.98E-04
     3 OT DIIS     0.80E-01    2.9     0.00002324     -1103.3614179610 -7.64E-05
     4 OT DIIS     0.80E-01    2.6     0.00000792     -1103.3614374795 -1.95E-05

  *** SCF run converged in     4 steps ***


  Electronic density on regular grids:       -511.9999997098        0.0000002902
  Core density on regular grids:              511.9999984885       -0.0000015115
  Total charge density on r-space grids:       -0.0000012213
  Total charge density g-space grids:          -0.0000012213

  Overlap energy of the core charge distribution:               0.00000239769479
  Self energy of the core charge distribution:              -2838.21791979120962
  Core Hamiltonian energy:                                    827.46945409545629
  Hartree energy:                                            1179.24688911666999
  Exchange-correlation energy:                               -271.61406650632927
  Dispersion energy:                                           -0.24579679182166

  Total energy:                                             -1103.36143747953929

  outer SCF iter =    1 RMS gradient =   0.79E-05 energy =      -1103.3614374795

  ----------------------------------- OT ---------------------------------------
  Minimizer      : DIIS                : direct inversion
                                         in the iterative subspace
                                         using   7 DIIS vectors
                                         safer DIIS on
  Preconditioner : FULL_SINGLE_INVERSE : inversion of 
                                         H + eS - 2*(Sc)(c^T*H*c+const)(Sc)^T
  Precond_solver : DEFAULT
  stepsize       :    0.08000000                  energy_gap     :    0.08000000
  eps_taylor     :   0.10000E-15                  max_taylor     :             4
  ----------------------------------- OT ---------------------------------------

  Step     Update method      Time    Convergence         Total energy    Change
  ------------------------------------------------------------------------------
     1 OT DIIS     0.80E-01    5.3     0.00000231     -1103.3614399532 -2.47E-06

  *** SCF run converged in     1 steps ***


  Electronic density on regular grids:       -511.9999997098        0.0000002902
  Core density on regular grids:              511.9999984885       -0.0000015115
  Total charge density on r-space grids:       -0.0000012213
  Total charge density g-space grids:          -0.0000012213

  Overlap energy of the core charge distribution:               0.00000239769479
  Self energy of the core charge distribution:              -2838.21791979120962
  Core Hamiltonian energy:                                    827.46998598191465
  Hartree energy:                                            1179.24632999684218
  Exchange-correlation energy:                               -271.61404174659492
  Dispersion energy:                                           -0.24579679182166

  Total energy:                                             -1103.36143995317434

  outer SCF iter =    2 RMS gradient =   0.23E-05 energy =      -1103.3614399532

  ----------------------------------- OT ---------------------------------------
  Minimizer      : DIIS                : direct inversion
                                         in the iterative subspace
                                         using   7 DIIS vectors
                                         safer DIIS on
  Preconditioner : FULL_SINGLE_INVERSE : inversion of 
                                         H + eS - 2*(Sc)(c^T*H*c+const)(Sc)^T
  Precond_solver : DEFAULT
  stepsize       :    0.08000000                  energy_gap     :    0.08000000
  eps_taylor     :   0.10000E-15                  max_taylor     :             4
  ----------------------------------- OT ---------------------------------------

  Step     Update method      Time    Convergence         Total energy    Change
  ------------------------------------------------------------------------------
     1 OT DIIS     0.80E-01    8.0     0.00000144     -1103.3614400800 -1.27E-07

  *** SCF run converged in     1 steps ***


  Electronic density on regular grids:       -511.9999997098        0.0000002902
  Core density on regular grids:              511.9999984885       -0.0000015115
  Total charge density on r-space grids:       -0.0000012213
  Total charge density g-space grids:          -0.0000012213

  Overlap energy of the core charge distribution:               0.00000239769479
  Self energy of the core charge distribution:              -2838.21791979120962
  Core Hamiltonian energy:                                    827.47107825656985
  Hartree energy:                                            1179.24543935671932
  Exchange-correlation energy:                               -271.61424350792061
  Dispersion energy:                                           -0.24579679182166

  Total energy:                                             -1103.36144007996791

  outer SCF iter =    3 RMS gradient =   0.14E-05 energy =      -1103.3614400800

  ----------------------------------- OT ---------------------------------------
  Minimizer      : DIIS                : direct inversion
                                         in the iterative subspace
                                         using   7 DIIS vectors
                                         safer DIIS on
  Preconditioner : FULL_SINGLE_INVERSE : inversion of 
                                         H + eS - 2*(Sc)(c^T*H*c+const)(Sc)^T
  Precond_solver : DEFAULT
  stepsize       :    0.08000000                  energy_gap     :    0.08000000
  eps_taylor     :   0.10000E-15                  max_taylor     :             4
  ----------------------------------- OT ---------------------------------------

  Step     Update method      Time    Convergence         Total energy    Change
  ------------------------------------------------------------------------------
     1 OT DIIS     0.80E-01   10.7     0.00000095     -1103.3614401316 -5.16E-08

  *** SCF run converged in     1 steps ***


  Electronic density on regular grids:       -511.9999997098        0.0000002902
  Core density on regular grids:              511.9999984885       -0.0000015115
  Total charge density on r-space grids:       -0.0000012213
  Total charge density g-space grids:          -0.0000012213

  Overlap energy of the core charge distribution:               0.00000239769479
  Self energy of the core charge distribution:              -2838.21791979120962
  Core Hamiltonian energy:                                    827.47121302090272
  Hartree energy:                                            1179.24532677413526
  Exchange-correlation energy:                               -271.61426574126517
  Dispersion energy:                                           -0.24579679182166

  Total energy:                                             -1103.36144013156354

  outer SCF iter =    4 RMS gradient =   0.95E-06 energy =      -1103.3614401316
  outer SCF loop converged in   4 iterations or    7 steps


 ENERGY| Total FORCE_EVAL ( QS ) energy [a.u.]:            -1103.361440154433922

 MD| ***************************************************************************
 MD| Step number                                                               2
 MD| Time [fs]                                                          1.000000
 MD| Conserved quantity [hartree]                            -0.110280950773E+04
 MD| ---------------------------------------------------------------------------
 MD|                                          Instantaneous             Averages
 MD| CPU time per MD step [s]                     24.857312            82.442910
 MD| Energy drift per atom [K]           0.295321861356E-01   0.147660930678E-01
 MD| Potential energy [hartree]         -0.110336144015E+04  -0.110335991557E+04
 MD| Kinetic energy [hartree]            0.278348229625E+00   0.276822255877E+00
 MD| Temperature [K]                             305.192063           303.518925
 MD| ***************************************************************************

 Number of electrons:                                                        512
 Number of occupied orbitals:                                                256
 Number of molecular orbitals:                                               256

 Number of orbital functions:                                               1472
 Number of independent orbital functions:                                   1472

 Extrapolation method: ASPC


 SCF WAVEFUNCTION OPTIMIZATION

  ----------------------------------- OT ---------------------------------------
  Minimizer      : DIIS                : direct inversion
                                         in the iterative subspace
                                         using   7 DIIS vectors
                                         safer DIIS on
  Preconditioner : FULL_SINGLE_INVERSE : inversion of 
                                         H + eS - 2*(Sc)(c^T*H*c+const)(Sc)^T
  Precond_solver : DEFAULT
  stepsize       :    0.08000000                  energy_gap     :    0.08000000
  eps_taylor     :   0.10000E-15                  max_taylor     :             4
  ----------------------------------- OT ---------------------------------------

  Step     Update method      Time    Convergence         Total energy    Change
  ------------------------------------------------------------------------------
     1 OT DIIS     0.80E-01    1.9     0.00005367     -1103.3656772716 -1.10E+03
     2 OT DIIS     0.80E-01    2.7     0.00002867     -1103.3657401556 -6.29E-05
     3 OT DIIS     0.80E-01    2.6     0.00001344     -1103.3657648314 -2.47E-05
     4 OT DIIS     0.80E-01    2.6     0.00000457     -1103.3657714437 -6.61E-06

  *** SCF run converged in     4 steps ***


  Electronic density on regular grids:       -511.9999997010        0.0000002990
  Core density on regular grids:              511.9999984916       -0.0000015084
  Total charge density on r-space grids:       -0.0000012094
  Total charge density g-space grids:          -0.0000012094

  Overlap energy of the core charge distribution:               0.00000232002163
  Self energy of the core charge distribution:              -2838.21791979120962
  Core Hamiltonian energy:                                    827.28340551347628
  Hartree energy:                                            1179.37460844408679
  Exchange-correlation energy:                               -271.56009594117182
  Dispersion energy:                                           -0.24577198892991

  Total energy:                                             -1103.36577144372632

  outer SCF iter =    1 RMS gradient =   0.46E-05 energy =      -1103.3657714437

  ----------------------------------- OT ---------------------------------------
  Minimizer      : DIIS                : direct inversion
                                         in the iterative subspace
                                         using   7 DIIS vectors
                                         safer DIIS on
  Preconditioner : FULL_SINGLE_INVERSE : inversion of 
                                         H + eS - 2*(Sc)(c^T*H*c+const)(Sc)^T
  Precond_solver : DEFAULT
  stepsize       :    0.08000000                  energy_gap     :    0.08000000
  eps_taylor     :   0.10000E-15                  max_taylor     :             4
  ----------------------------------- OT ---------------------------------------

  Step     Update method      Time    Convergence         Total energy    Change
  ------------------------------------------------------------------------------
     1 OT DIIS     0.80E-01    5.5     0.00000133     -1103.3657722709 -8.27E-07

  *** SCF run converged in     1 steps ***


  Electronic density on regular grids:       -511.9999997010        0.0000002990
  Core density on regular grids:              511.9999984916       -0.0000015084
  Total charge density on r-space grids:       -0.0000012094
  Total charge density g-space grids:          -0.0000012094

  Overlap energy of the core charge distribution:               0.00000232002163
  Self energy of the core charge distribution:              -2838.21791979120962
  Core Hamiltonian energy:                                    827.28354804763558
  Hartree energy:                                            1179.37442209758547
  Exchange-correlation energy:                               -271.56005295599681
  Dispersion energy:                                           -0.24577198892991

  Total energy:                                             -1103.36577227089333

  outer SCF iter =    2 RMS gradient =   0.13E-05 energy =      -1103.3657722709

  ----------------------------------- OT ---------------------------------------
  Minimizer      : DIIS                : direct inversion
                                         in the iterative subspace
                                         using   7 DIIS vectors
                                         safer DIIS on
  Preconditioner : FULL_SINGLE_INVERSE : inversion of 
                                         H + eS - 2*(Sc)(c^T*H*c+const)(Sc)^T
  Precond_solver : DEFAULT
  stepsize       :    0.08000000                  energy_gap     :    0.08000000
  eps_taylor     :   0.10000E-15                  max_taylor     :             4
  ----------------------------------- OT ---------------------------------------

  Step     Update method      Time    Convergence         Total energy    Change
  ------------------------------------------------------------------------------
     1 OT DIIS     0.80E-01    8.3     0.00000083     -1103.3657723133 -4.24E-08

  *** SCF run converged in     1 steps ***


  Electronic density on regular grids:       -511.9999997010        0.0000002990
  Core density on regular grids:              511.9999984916       -0.0000015084
  Total charge density on r-space grids:       -0.0000012094
  Total charge density g-space grids:          -0.0000012094

  Overlap energy of the core charge distribution:               0.00000232002163
  Self energy of the core charge distribution:              -2838.21791979120962
  Core Hamiltonian energy:                                    827.28414914436098
  Hartree energy:                                            1179.37393022043170
  Exchange-correlation energy:                               -271.56016221794800
  Dispersion energy:                                           -0.24577198892991

  Total energy:                                             -1103.36577231327283

  outer SCF iter =    3 RMS gradient =   0.83E-06 energy =      -1103.3657723133
  outer SCF loop converged in   3 iterations or    6 steps


 ENERGY| Total FORCE_EVAL ( QS ) energy [a.u.]:            -1103.365772330607115

 MD| ***************************************************************************
 MD| Step number                                                               3
 MD| Time [fs]                                                          1.500000
 MD| Conserved quantity [hartree]                            -0.110280955461E+04
 MD| ---------------------------------------------------------------------------
 MD|                                          Instantaneous             Averages
 MD| CPU time per MD step [s]                     22.040881            62.308900
 MD| Energy drift per atom [K]          -0.475594076757E-01  -0.600907384671E-02
 MD| Potential energy [hartree]         -0.110336577233E+04  -0.110336186782E+04
 MD| Kinetic energy [hartree]            0.282648672688E+00   0.278764394814E+00
 MD| Temperature [K]                             309.907240           305.648363
 MD| ***************************************************************************

 Number of electrons:                                                        512
 Number of occupied orbitals:                                                256
 Number of molecular orbitals:                                               256

 Number of orbital functions:                                               1472
 Number of independent orbital functions:                                   1472

 Extrapolation method: ASPC


 SCF WAVEFUNCTION OPTIMIZATION

  ----------------------------------- OT ---------------------------------------
  Minimizer      : DIIS                : direct inversion
                                         in the iterative subspace
                                         using   7 DIIS vectors
                                         safer DIIS on
  Preconditioner : FULL_SINGLE_INVERSE : inversion of 
                                         H + eS - 2*(Sc)(c^T*H*c+const)(Sc)^T
  Precond_solver : DEFAULT
  stepsize       :    0.08000000                  energy_gap     :    0.08000000
  eps_taylor     :   0.10000E-15                  max_taylor     :             4
  ----------------------------------- OT ---------------------------------------

  Step     Update method      Time    Convergence         Total energy    Change
  ------------------------------------------------------------------------------
     1 OT DIIS     0.80E-01    1.9     0.00004062     -1103.3705930815 -1.10E+03
     2 OT DIIS     0.80E-01    2.8     0.00002174     -1103.3706292266 -3.61E-05
     3 OT DIIS     0.80E-01    2.6     0.00000998     -1103.3706435165 -1.43E-05

  *** SCF run converged in     3 steps ***


  Electronic density on regular grids:       -511.9999996937        0.0000003063
  Core density on regular grids:              511.9999984924       -0.0000015076
  Total charge density on r-space grids:       -0.0000012013
  Total charge density g-space grids:          -0.0000012013

  Overlap energy of the core charge distribution:               0.00000218447781
  Self energy of the core charge distribution:              -2838.21791979120962
  Core Hamiltonian energy:                                    826.97460947085369
  Hartree energy:                                            1179.58843872935358
  Exchange-correlation energy:                               -271.47004214686694
  Dispersion energy:                                           -0.24573196310325

  Total energy:                                             -1103.37064351649451

  outer SCF iter =    1 RMS gradient =   0.10E-04 energy =      -1103.3706435165

  ----------------------------------- OT ---------------------------------------
  Minimizer      : DIIS                : direct inversion
                                         in the iterative subspace
                                         using   7 DIIS vectors
                                         safer DIIS on
  Preconditioner : FULL_SINGLE_INVERSE : inversion of 
                                         H + eS - 2*(Sc)(c^T*H*c+const)(Sc)^T
  Precond_solver : DEFAULT
  stepsize       :    0.08000000                  energy_gap     :    0.08000000
  eps_taylor     :   0.10000E-15                  max_taylor     :             4
  ----------------------------------- OT ---------------------------------------

  Step     Update method      Time    Convergence         Total energy    Change
  ------------------------------------------------------------------------------
     1 OT DIIS     0.80E-01    5.3     0.00000335     -1103.3706471272 -3.61E-06

  *** SCF run converged in     1 steps ***


  Electronic density on regular grids:       -511.9999996937        0.0000003063
  Core density on regular grids:              511.9999984924       -0.0000015076
  Total charge density on r-space grids:       -0.0000012013
  Total charge density g-space grids:          -0.0000012013

  Overlap energy of the core charge distribution:               0.00000218447781
  Self energy of the core charge distribution:              -2838.21791979120962
  Core Hamiltonian energy:                                    826.97235381289875
  Hartree energy:                                            1179.59014056414890
  Exchange-correlation energy:                               -271.46949193438354
  Dispersion energy:                                           -0.24573196310325

  Total energy:                                             -1103.37064712717074

  outer SCF iter =    2 RMS gradient =   0.34E-05 energy =      -1103.3706471272

  ----------------------------------- OT ---------------------------------------
  Minimizer      : DIIS                : direct inversion
                                         in the iterative subspace
                                         using   7 DIIS vectors
                                         safer DIIS on
  Preconditioner : FULL_SINGLE_INVERSE : inversion of 
                                         H + eS - 2*(Sc)(c^T*H*c+const)(Sc)^T
  Precond_solver : DEFAULT
  stepsize       :    0.08000000                  energy_gap     :    0.08000000
  eps_taylor     :   0.10000E-15                  max_taylor     :             4
  ----------------------------------- OT ---------------------------------------

  Step     Update method      Time    Convergence         Total energy    Change
  ------------------------------------------------------------------------------
     1 OT DIIS     0.80E-01    8.1     0.00000212     -1103.3706474007 -2.74E-07

  *** SCF run converged in     1 steps ***


  Electronic density on regular grids:       -511.9999996937        0.0000003063
  Core density on regular grids:              511.9999984924       -0.0000015076
  Total charge density on r-space grids:       -0.0000012013
  Total charge density g-space grids:          -0.0000012013

  Overlap energy of the core charge distribution:               0.00000218447781
  Self energy of the core charge distribution:              -2838.21791979120962
  Core Hamiltonian energy:                                    826.97245576048522
  Hartree energy:                                            1179.59004275680400
  Exchange-correlation energy:                               -271.46949634820282
  Dispersion energy:                                           -0.24573196310325

  Total energy:                                             -1103.37064740074834

  outer SCF iter =    3 RMS gradient =   0.21E-05 energy =      -1103.3706474007

  ----------------------------------- OT ---------------------------------------
  Minimizer      : DIIS                : direct inversion
                                         in the iterative subspace
                                         using   7 DIIS vectors
                                         safer DIIS on
  Preconditioner : FULL_SINGLE_INVERSE : inversion of 
                                         H + eS - 2*(Sc)(c^T*H*c+const)(Sc)^T
  Precond_solver : DEFAULT
  stepsize       :    0.08000000                  energy_gap     :    0.08000000
  eps_taylor     :   0.10000E-15                  max_taylor     :             4
  ----------------------------------- OT ---------------------------------------

  Step     Update method      Time    Convergence         Total energy    Change
  ------------------------------------------------------------------------------
     1 OT DIIS     0.80E-01   10.8     0.00000141     -1103.3706475133 -1.13E-07

  *** SCF run converged in     1 steps ***


  Electronic density on regular grids:       -511.9999996937        0.0000003063
  Core density on regular grids:              511.9999984924       -0.0000015076
  Total charge density on r-space grids:       -0.0000012013
  Total charge density g-space grids:          -0.0000012013

  Overlap energy of the core charge distribution:               0.00000218447781
  Self energy of the core charge distribution:              -2838.21791979120962
  Core Hamiltonian energy:                                    826.97263315067812
  Hartree energy:                                            1179.58988790853664
  Exchange-correlation energy:                               -271.46951900271023
  Dispersion energy:                                           -0.24573196310325

  Total energy:                                             -1103.37064751333037

  outer SCF iter =    4 RMS gradient =   0.14E-05 energy =      -1103.3706475133

  ----------------------------------- OT ---------------------------------------
  Minimizer      : DIIS                : direct inversion
                                         in the iterative subspace
                                         using   7 DIIS vectors
                                         safer DIIS on
  Preconditioner : FULL_SINGLE_INVERSE : inversion of 
                                         H + eS - 2*(Sc)(c^T*H*c+const)(Sc)^T
  Precond_solver : DEFAULT
  stepsize       :    0.08000000                  energy_gap     :    0.08000000
  eps_taylor     :   0.10000E-15                  max_taylor     :             4
  ----------------------------------- OT ---------------------------------------

  Step     Update method      Time    Convergence         Total energy    Change
  ------------------------------------------------------------------------------
     1 OT DIIS     0.80E-01   13.5     0.00000095     -1103.3706475633 -5.00E-08

  *** SCF run converged in     1 steps ***


  Electronic density on regular grids:       -511.9999996937        0.0000003063
  Core density on regular grids:              511.9999984924       -0.0000015076
  Total charge density on r-space grids:       -0.0000012013
  Total charge density g-space grids:          -0.0000012013

  Overlap energy of the core charge distribution:               0.00000218447781
  Self energy of the core charge distribution:              -2838.21791979120962
  Core Hamiltonian energy:                                    826.97270410528358
  Hartree energy:                                            1179.58982291322400
  Exchange-correlation energy:                               -271.46952501199644
  Dispersion energy:                                           -0.24573196310325

  Total energy:                                             -1103.37064756332370

  outer SCF iter =    5 RMS gradient =   0.95E-06 energy =      -1103.3706475633
  outer SCF loop converged in   5 iterations or    7 steps


 ENERGY| Total FORCE_EVAL ( QS ) energy [a.u.]:            -1103.370647586184305

 MD| ***************************************************************************
 MD| Step number                                                               4
 MD| Time [fs]                                                          2.000000
 MD| Conserved quantity [hartree]                            -0.110280962757E+04
 MD| ---------------------------------------------------------------------------
 MD|                                          Instantaneous             Averages
 MD| CPU time per MD step [s]                     24.383179            52.827470
 MD| Energy drift per atom [K]          -0.167561145806E+00  -0.463970918366E-01
 MD| Potential energy [hartree]         -0.110337064759E+04  -0.110336406276E+04
 MD| Kinetic energy [hartree]            0.287465146961E+00   0.280939582851E+00
 MD| Temperature [K]                             315.188214           308.033326
 MD| ***************************************************************************

 Number of electrons:                                                        512
 Number of occupied orbitals:                                                256
 Number of molecular orbitals:                                               256

 Number of orbital functions:                                               1472
 Number of independent orbital functions:                                   1472

 Extrapolation method: ASPC


 SCF WAVEFUNCTION OPTIMIZATION

  ----------------------------------- OT ---------------------------------------
  Minimizer      : DIIS                : direct inversion
                                         in the iterative subspace
                                         using   7 DIIS vectors
                                         safer DIIS on
  Preconditioner : FULL_SINGLE_INVERSE : inversion of 
                                         H + eS - 2*(Sc)(c^T*H*c+const)(Sc)^T
  Precond_solver : DEFAULT
  stepsize       :    0.08000000                  energy_gap     :    0.08000000
  eps_taylor     :   0.10000E-15                  max_taylor     :             4
  ----------------------------------- OT ---------------------------------------

  Step     Update method      Time    Convergence         Total energy    Change
  ------------------------------------------------------------------------------
     1 OT DIIS     0.80E-01    1.9     0.00003619     -1103.3748684478 -1.10E+03
     2 OT DIIS     0.80E-01    2.8     0.00001974     -1103.3748975237 -2.91E-05
     3 OT DIIS     0.80E-01    2.6     0.00000877     -1103.3749096828 -1.22E-05

  *** SCF run converged in     3 steps ***


  Electronic density on regular grids:       -511.9999996863        0.0000003137
  Core density on regular grids:              511.9999984927       -0.0000015073
  Total charge density on r-space grids:       -0.0000011937
  Total charge density g-space grids:          -0.0000011937

  Overlap energy of the core charge distribution:               0.00000201837365
  Self energy of the core charge distribution:              -2838.21791979120962
  Core Hamiltonian energy:                                    826.56983997670386
  Hartree energy:                                            1179.87073200741202
  Exchange-correlation energy:                               -271.35188518342090
  Dispersion energy:                                           -0.24567871070875

  Total energy:                                             -1103.37490968284942

  outer SCF iter =    1 RMS gradient =   0.88E-05 energy =      -1103.3749096828

  ----------------------------------- OT ---------------------------------------
  Minimizer      : DIIS                : direct inversion
                                         in the iterative subspace
                                         using   7 DIIS vectors
                                         safer DIIS on
  Preconditioner : FULL_SINGLE_INVERSE : inversion of 
                                         H + eS - 2*(Sc)(c^T*H*c+const)(Sc)^T
  Precond_solver : DEFAULT
  stepsize       :    0.08000000                  energy_gap     :    0.08000000
  eps_taylor     :   0.10000E-15                  max_taylor     :             4
  ----------------------------------- OT ---------------------------------------

  Step     Update method      Time    Convergence         Total energy    Change
  ------------------------------------------------------------------------------
     1 OT DIIS     0.80E-01    5.5     0.00000295     -1103.3749124916 -2.81E-06

  *** SCF run converged in     1 steps ***


  Electronic density on regular grids:       -511.9999996863        0.0000003137
  Core density on regular grids:              511.9999984927       -0.0000015073
  Total charge density on r-space grids:       -0.0000011937
  Total charge density g-space grids:          -0.0000011937

  Overlap energy of the core charge distribution:               0.00000201837365
  Self energy of the core charge distribution:              -2838.21791979120962
  Core Hamiltonian energy:                                    826.56928531181552
  Hartree energy:                                            1179.87108703618401
  Exchange-correlation energy:                               -271.35168835609539
  Dispersion energy:                                           -0.24567871070875

  Total energy:                                             -1103.37491249164032

  outer SCF iter =    2 RMS gradient =   0.30E-05 energy =      -1103.3749124916

  ----------------------------------- OT ---------------------------------------
  Minimizer      : DIIS                : direct inversion
                                         in the iterative subspace
                                         using   7 DIIS vectors
                                         safer DIIS on
  Preconditioner : FULL_SINGLE_INVERSE : inversion of 
                                         H + eS - 2*(Sc)(c^T*H*c+const)(Sc)^T
  Precond_solver : DEFAULT
  stepsize       :    0.08000000                  energy_gap     :    0.08000000
  eps_taylor     :   0.10000E-15                  max_taylor     :             4
  ----------------------------------- OT ---------------------------------------

  Step     Update method      Time    Convergence         Total energy    Change
  ------------------------------------------------------------------------------
     1 OT DIIS     0.80E-01    8.2     0.00000186     -1103.3749127033 -2.12E-07

  *** SCF run converged in     1 steps ***


  Electronic density on regular grids:       -511.9999996863        0.0000003137
  Core density on regular grids:              511.9999984927       -0.0000015073
  Total charge density on r-space grids:       -0.0000011937
  Total charge density g-space grids:          -0.0000011937

  Overlap energy of the core charge distribution:               0.00000201837365
  Self energy of the core charge distribution:              -2838.21791979120962
  Core Hamiltonian energy:                                    826.56922654197342
  Hartree energy:                                            1179.87112678755830
  Exchange-correlation energy:                               -271.35166954927826
  Dispersion energy:                                           -0.24567871070875

  Total energy:                                             -1103.37491270329110

  outer SCF iter =    3 RMS gradient =   0.19E-05 energy =      -1103.3749127033

  ----------------------------------- OT ---------------------------------------
  Minimizer      : DIIS                : direct inversion
                                         in the iterative subspace
                                         using   7 DIIS vectors
                                         safer DIIS on
  Preconditioner : FULL_SINGLE_INVERSE : inversion of 
                                         H + eS - 2*(Sc)(c^T*H*c+const)(Sc)^T
  Precond_solver : DEFAULT
  stepsize       :    0.08000000                  energy_gap     :    0.08000000
  eps_taylor     :   0.10000E-15                  max_taylor     :             4
  ----------------------------------- OT ---------------------------------------

  Step     Update method      Time    Convergence         Total energy    Change
  ------------------------------------------------------------------------------
     1 OT DIIS     0.80E-01   10.9     0.00000124     -1103.3749127901 -8.68E-08

  *** SCF run converged in     1 steps ***


  Electronic density on regular grids:       -511.9999996863        0.0000003137
  Core density on regular grids:              511.9999984927       -0.0000015073
  Total charge density on r-space grids:       -0.0000011937
  Total charge density g-space grids:          -0.0000011937

  Overlap energy of the core charge distribution:               0.00000201837365
  Self energy of the core charge distribution:              -2838.21791979120962
  Core Hamiltonian energy:                                    826.56932978164843
  Hartree energy:                                            1179.87103588295554
  Exchange-correlation energy:                               -271.35168197115837
  Dispersion energy:                                           -0.24567871070875

  Total energy:                                             -1103.37491279009896

  outer SCF iter =    4 RMS gradient =   0.12E-05 energy =      -1103.3749127901

  ----------------------------------- OT ---------------------------------------
  Minimizer      : DIIS                : direct inversion
                                         in the iterative subspace
                                         using   7 DIIS vectors
                                         safer DIIS on
  Preconditioner : FULL_SINGLE_INVERSE : inversion of 
                                         H + eS - 2*(Sc)(c^T*H*c+const)(Sc)^T
  Precond_solver : DEFAULT
  stepsize       :    0.08000000                  energy_gap     :    0.08000000
  eps_taylor     :   0.10000E-15                  max_taylor     :             4
  ----------------------------------- OT ---------------------------------------

  Step     Update method      Time    Convergence         Total energy    Change
  ------------------------------------------------------------------------------
     1 OT DIIS     0.80E-01   13.7     0.00000084     -1103.3749128287 -3.86E-08

  *** SCF run converged in     1 steps ***


  Electronic density on regular grids:       -511.9999996863        0.0000003137
  Core density on regular grids:              511.9999984927       -0.0000015073
  Total charge density on r-space grids:       -0.0000011937
  Total charge density g-space grids:          -0.0000011937

  Overlap energy of the core charge distribution:               0.00000201837365
  Self energy of the core charge distribution:              -2838.21791979120962
  Core Hamiltonian energy:                                    826.56937395544742
  Hartree energy:                                            1179.87099484065652
  Exchange-correlation energy:                               -271.35168514122722
  Dispersion energy:                                           -0.24567871070875

  Total energy:                                             -1103.37491282866790

  outer SCF iter =    5 RMS gradient =   0.84E-06 energy =      -1103.3749128287
  outer SCF loop converged in   5 iterations or    7 steps


 ENERGY| Total FORCE_EVAL ( QS ) energy [a.u.]:            -1103.374912846351663

 MD| ***************************************************************************
 MD| Step number                                                               5
 MD| Time [fs]                                                          2.500000
 MD| Conserved quantity [hartree]                            -0.110280968769E+04
 MD| ---------------------------------------------------------------------------
 MD|                                          Instantaneous             Averages
 MD| CPU time per MD step [s]                     24.938599            47.249696
 MD| Energy drift per atom [K]          -0.266440584079E+00  -0.904057902851E-01
 MD| Potential energy [hartree]         -0.110337491285E+04  -0.110336623278E+04
 MD| Kinetic energy [hartree]            0.291682444221E+00   0.283088155125E+00
[...]
 flops   189 x    32 x   128           1275789312       0.0%    100.0%      0.0%
 flops   189 x    64 x   128           1275789312       0.0%    100.0%      0.0%
 flops   220 x    32 x   112           1299415040       0.0%    100.0%      0.0%
 flops   220 x    64 x   112           1299415040       0.0%    100.0%      0.0%
 flops   163 x    64 x   104           1340971008       0.0%    100.0%      0.0%
 flops   163 x    32 x   104           1340971008       0.0%    100.0%      0.0%
 flops   164 x    32 x   104           1349197824       0.0%    100.0%      0.0%
 flops   164 x    64 x   104           1349197824       0.0%    100.0%      0.0%
 flops    64 x    64 x   104           1390411776       0.0%    100.0%      0.0%
 flops    64 x    32 x   104           1390411776       0.0%    100.0%      0.0%
 flops   171 x    32 x   104           1406785536       0.0%    100.0%      0.0%
 flops   171 x    64 x   104           1406785536       0.0%    100.0%      0.0%
 flops   220 x    32 x   128           1485045760       0.0%    100.0%      0.0%
 flops   220 x    64 x   128           1485045760       0.0%    100.0%      0.0%
 flops   189 x    32 x   104           1554868224       0.0%    100.0%      0.0%
 flops   189 x    64 x   104           1554868224       0.0%    100.0%      0.0%
 flops    64 x    64 x    32           1614807040       0.0%    100.0%      0.0%
 flops    64 x    32 x    32           1614807040       0.0%    100.0%      0.0%
 flops   220 x    32 x   104           1809899520       0.0%    100.0%      0.0%
 flops   220 x    64 x   104           1809899520       0.0%    100.0%      0.0%
 flops   207 x    64 x   112           2445262848       0.0%    100.0%      0.0%
 flops   207 x    32 x   112           2445262848       0.0%    100.0%      0.0%
 flops     5 x    32 x    32           2642411520       0.0%    100.0%      0.0%
 flops   207 x    64 x   128           2794586112       0.0%    100.0%      0.0%
 flops   207 x    32 x   128           2794586112       0.0%    100.0%      0.0%
 flops    32 x    64 x   112           2994733056       0.0%    100.0%      0.0%
 flops   151 x    32 x    32           3156803584       0.0%    100.0%      0.0%
 flops   151 x    64 x    32           3156803584       0.0%    100.0%      0.0%
 flops   207 x    64 x   104           3405901824       0.0%    100.0%      0.0%
 flops   207 x    32 x   104           3405901824       0.0%    100.0%      0.0%
 flops   163 x    64 x    32           3407675392       0.0%    100.0%      0.0%
 flops   163 x    32 x    32           3407675392       0.0%    100.0%      0.0%
 flops    32 x    32 x   128           3422552064       0.0%    100.0%      0.0%
 flops    32 x    64 x   128           3422552064       0.0%    100.0%      0.0%
 flops   164 x    32 x    32           3428581376       0.0%    100.0%      0.0%
 flops   164 x    64 x    32           3428581376       0.0%    100.0%      0.0%
 flops    13 x    32 x    32           3435134976       0.0%    100.0%      0.0%
 flops   171 x    32 x    32           3574923264       0.0%    100.0%      0.0%
 flops   171 x    64 x    32           3574923264       0.0%    100.0%      0.0%
 flops    32 x    32 x   112           3688366080       0.0%    100.0%      0.0%
 flops   189 x    32 x    32           3951230976       0.0%    100.0%      0.0%
 flops   189 x    64 x    32           3951230976       0.0%    100.0%      0.0%
 flops    32 x    64 x   104           4171235328       0.0%    100.0%      0.0%
 flops    32 x    32 x   104           4385931264       0.0%    100.0%      0.0%
 flops   220 x    32 x    32           4599316480       0.0%    100.0%      0.0%
 flops   220 x    64 x    32           4599316480       0.0%    100.0%      0.0%
 flops    32 x    32 x    32           4844421120       0.0%    100.0%      0.0%
 flops    32 x    64 x    32           4844421120       0.0%    100.0%      0.0%
 flops   207 x    64 x    32           8655077376       0.0%    100.0%      0.0%
 flops   207 x    32 x    32           8655077376       0.0%    100.0%      0.0%
 flops     5 x     5 x    32          12152832000       0.0%    100.0%      0.0%
 flops    13 x     5 x    32          15676211200       0.0%    100.0%      0.0%
 flops     5 x    13 x    32          15676211200       0.0%    100.0%      0.0%
 flops    13 x    13 x    32          20697497600       0.0%    100.0%      0.0%
 flops     5 x    32 x     5          58720256000       0.0%    100.0%      0.0%
 flops    13 x    32 x     5          76336332800       0.0%    100.0%      0.0%
 flops     5 x    32 x    13          76336332800       0.0%    100.0%      0.0%
 flops    13 x    32 x    13          99237232640       0.0%    100.0%      0.0%
 flops inhomo. stacks                 93111723008     100.0%      0.0%      0.0%
 flops total                       639.608579E+09      14.6%     85.4%      0.0%
 flops max/rank                     39.279983E+09      15.6%     84.4%      0.0%
 matmuls inhomo. stacks                     87888     100.0%      0.0%      0.0%
 matmuls total                          100468560       0.1%     99.9%      0.0%
 number of processed stacks               1305536       6.7%     93.3%      0.0%
 average stack size                                     1.0      82.4       0.0
 marketing flops                   701.032235E+09
 -------------------------------------------------------------------------------
 # multiplications                           1586
 max memory usage/rank             361.103360E+06
 # max total images/rank                        3
 # max 3D layers                                1
 # MPI messages exchanged                  723216
 MPI messages size (bytes):
  total size                        54.486204E+09
  min size                           0.000000E+00
  max size                         453.568000E+03
  average size                      75.338773E+03
 MPI breakdown and total messages size (bytes):
             size <=      128              149128                        0
       128 < size <=     8192               70944                581173248
      8192 < size <=    32768              162304               3490259968
     32768 < size <=   131072              248920              17219640320
    131072 < size <=  4194304               91920              33195130880
   4194304 < size <= 16777216                   0                        0
  16777216 < size                               0                        0
 -------------------------------------------------------------------------------

 *** WARNING in dbcsr_mm.F:294 :: Using a non-square number of MPI ranks ***
 *** might lead to poor performance. Used ranks: 24 Suggested: 25 49     ***

 -------------------------------------------------------------------------------
 -                                                                             -
 -                      DBCSR MESSAGE PASSING PERFORMANCE                      -
 -                                                                             -
 -------------------------------------------------------------------------------
 ROUTINE             CALLS      AVE VOLUME [Bytes]
 MP_Bcast               84                     12.
 MP_Allreduce         8234                     15.
 MP_Alltoall          7600                  50256.
 MP_ISend            72272                  37221.
 MP_IRecv            70932                  36779.
 -------------------------------------------------------------------------------

 -------------------------------------------------------------------------------
 -                                                                             -
 -                                GRID STATISTICS                              -
 -                                                                             -
 -------------------------------------------------------------------------------
 LP    KERNEL             BACKEND                              COUNT     PERCENT
 2     collocate ortho    REF                               41234493      28.81%
 2     integrate ortho    REF                               38180260      26.68%
 3     integrate ortho    REF                               27582659      19.27%
 3     collocate ortho    REF                               26490660      18.51%
 4     integrate ortho    REF                                5490519       3.84%
 4     collocate ortho    REF                                3810527       2.66%
 5     integrate ortho    REF                                 282242       0.20%
 0     collocate general  REF                                  27648       0.02%
 1     integrate general  REF                                  27648       0.02%
 -------------------------------------------------------------------------------

 MEMORY| Estimated peak process memory [MiB]                                 345

 -------------------------------------------------------------------------------
 -                                                                             -
 -                         MESSAGE PASSING PERFORMANCE                         -
 -                                                                             -
 -------------------------------------------------------------------------------

 ROUTINE             CALLS      AVE VOLUME [Bytes]
 MP_Group                4
 MP_Bcast             5226                  74163.
 MP_Allreduce        14638                    893.
 MP_Sync                34
 MP_Alltoall          1635                5306786.
 MP_SendRecv           552                   2364.
 MP_ISendRecv         7452                  42192.
 MP_Wait             18354
 MP_comm_split          30
 MP_ISend             9732                 137930.
 MP_IRecv             9732                 137930.
 -------------------------------------------------------------------------------


 -------------------------------------------------------------------------------
 -                                                                             -
 -                           R E F E R E N C E S                               -
 -                                                                             -
 -------------------------------------------------------------------------------
 
 CP2K version 8.1, the CP2K developers group (2020).
 CP2K is freely available from https://www.cp2k.org/ .

 Kuehne,Thomas D.; Iannuzzi,Marcella; Del Ben,Mauro;
 Rybkin,Vladimir V.; Seewald,Patrick; Stein,Frederick; Laino,Teodoro;
 Khaliullin,Rustam Z.; Schuett,Ole; Schiffmann,Florian; Golze,Dorothea;
 Wilhelm,Jan; Chulkov,Sergey; Bani-Hashemian,Mohammad Hossein;
 Weber,Valery; Borstnik,Urban; Taillefumier,Mathieu;
 Jakobovits,Alice Shoshana; Lazzaro,Alfio; Pabst,Hans; Mueller,Tiziano;
 Schade,Robert; Guidon,Manuel; Andermatt,Samuel; Holmberg,Nico;
 Schenter,Gregory K.; Hehn,Anna; Bussy,Augustin; Belleflamme,Fabian;
 Tabacchi,Gloria; Gloess,Andreas; Lass,Michael; Bethune,Iain;
 Mundy,Christopher J.; Plessl,Christian; Watkins,Matt;
 VandeVondele,Joost; Krack,Matthias; Hutter,Juerg. 
 The Journal of Chemical Physics, 152 (19), (2020). 
 CP2K: An electronic structure and molecular dynamics software package -
 Quickstep: Efficient and accurate electronic structure calculations.
 https://doi.org/10.1063/5.0007045

 Goerigk, Lars; Hansen, Andreas; Bauer, Christoph; Ehrlich, Stephan;
 Najibi, Asim; Grimme, Stefan. , 19 (48), (2017). 
 A look at the density functional theory zoo with the advanced GMTKN55 database
 for general main group thermochemistry, kinetics and noncovalent interactions.
 https://doi.org/10.1039/C7CP04913G

 Schuett, Ole; Messmer, Peter; Hutter, Juerg; VandeVondele, Joost. 
 Electronic Structure Calculations on Graphics Processing Units, John
 Wiley & Sons, Ltd, 173-190 (2016). 
 GPU-Accelerated Sparse Matrix-Matrix Multiplication for
 Linear Scaling Density Functional Theory.
 https://doi.org/10.1002/9781118670712.ch8

 Borstnik, U; VandeVondele, J; Weber, V; Hutter, J. 
 PARALLEL COMPUTING, 40 (5-6), 47-58 (2014). 
 Sparse matrix multiplication: The distributed block-compressed sparse
 row library.
 https://doi.org/10.1016/j.parco.2014.03.012

 Hutter, J; Iannuzzi, M; Schiffmann, F; VandeVondele, J. 
 WIREs Comput Mol Sci., 4 (1), 15-25 (2014). 
 CP2K: atomistic simulations of condensed matter systems.
 https://doi.org/10.1002/wcms.1159

 Grimme, S; Ehrlich, S; Goerigk, L. 
 JOURNAL OF COMPUTATIONAL CHEMISTRY, 32, 1456 (2011). 
 Effect of the damping function in dispersion corrected density functional theory.
 https://doi.org/10.1002/jcc.21759

 Grimme, S; Antony, J; Ehrlich, S; Krieg, H. 
 JOURNAL OF CHEMICAL PHYSICS, 132 (15), 154104 (2010). 
 A consistent and accurate ab initio parametrization of density
 functional dispersion correction (DFT-D) for the 94 elements H-Pu.
 https://doi.org/10.1063/1.3382344

 VandeVondele, J; Hutter, J. 
 JOURNAL OF CHEMICAL PHYSICS, 127 (11), 114105 (2007). 
 Gaussian basis sets for accurate calculations on molecular systems in
 gas and condensed phases.
 https://doi.org/10.1063/1.2770708

 Kuhne, TD; Krack, M; Mohamed, FR; Parrinello, M. 
 PHYSICAL REVIEW LETTERS, 98 (6), 066401 (2007). 
 Efficient and accurate Car-Parrinello-like approach to
 Born-Oppenheimer molecular dynamics.
 https://doi.org/10.1103/PhysRevLett.98.066401

 Krack, M. 
 THEORETICAL CHEMISTRY ACCOUNTS, 114 (1-3), 145-152 (2005). 
 Pseudopotentials for H to Kr optimized for gradient-corrected
 exchange-correlation functionals.
 https://doi.org/10.1007/s00214-005-0655-y

 VandeVondele, J; Krack, M; Mohamed, F; Parrinello, M; Chassaing, T;
 Hutter, J. COMPUTER PHYSICS COMMUNICATIONS, 167 (2), 103-128 (2005). 
 QUICKSTEP: Fast and accurate density functional calculations using a
 mixed Gaussian and plane waves approach.
 https://doi.org/10.1016/j.cpc.2004.12.014

 Frigo, M; Johnson, SG. 
 PROCEEDINGS OF THE IEEE, 93 (2), 216-231 (2005). 
 The design and implementation of FFTW3.
 https://doi.org/10.1109/JPROC.2004.840301

 Kolafa, J. 
 JOURNAL OF COMPUTATIONAL CHEMISTRY, 25 (3), 335-342 (2004). 
 Time-reversible always stable predictor-corrector method for molecular dynamics of polarizable molecules.
 https://doi.org/10.1002/jcc.10385

 VandeVondele, J; Hutter, J. 
 JOURNAL OF CHEMICAL PHYSICS, 118 (10), 4365-4369 (2003). 
 An efficient orbital transformation method for electronic structure
 calculations.
 https://doi.org/10.1063/1.1543154

 Hartwigsen, C; Goedecker, S; Hutter, J. 
 PHYSICAL REVIEW B, 58 (7), 3641-3662 (1998). 
 Relativistic separable dual-space Gaussian pseudopotentials from H to Rn.
 https://doi.org/10.1103/PhysRevB.58.3641

 Lippert, G; Hutter, J; Parrinello, M. 
 MOLECULAR PHYSICS, 92 (3), 477-487 (1997). 
 A hybrid Gaussian and plane wave density functional scheme.
 https://doi.org/10.1080/002689797170220

 Perdew, JP; Burke, K; Ernzerhof, M. 
 PHYSICAL REVIEW LETTERS, 77 (18), 3865-3868 (1996). 
 Generalized gradient approximation made simple.
 https://doi.org/10.1103/PhysRevLett.77.3865

 Goedecker, S; Teter, M; Hutter, J. 
 PHYSICAL REVIEW B, 54 (3), 1703-1710 (1996). 
 Separable dual-space Gaussian pseudopotentials.
 https://doi.org/10.1103/PhysRevB.54.1703

 NOSE, S. JOURNAL OF CHEMICAL PHYSICS, 81 (1), 511-519 (1984). 
 A UNIFIED FORMULATION OF THE CONSTANT TEMPERATURE MOLECULAR-DYNAMICS
 METHODS.
 https://doi.org/10.1063/1.447334

 NOSE, S. MOLECULAR PHYSICS, 52 (2), 255-268 (1984). 
 A MOLECULAR-DYNAMICS METHOD FOR SIMULATIONS IN THE CANONICAL ENSEMBLE.
 https://doi.org/10.1080/00268978400101201


 -------------------------------------------------------------------------------
 -                                                                             -
 -                                T I M I N G                                  -
 -                                                                             -
 -------------------------------------------------------------------------------
 SUBROUTINE                       CALLS  ASD         SELF TIME        TOTAL TIME
                                MAXIMUM       AVERAGE  MAXIMUM  AVERAGE  MAXIMUM
 CP2K                                 1  1.0    0.014    0.026  236.853  236.855
 qs_mol_dyn_low                       1  2.0    0.004    0.005  236.437  236.470
 qs_forces                            6  3.8    0.001    0.001  236.103  236.104
 qs_energies                          6  4.8    0.000    0.001  218.764  218.766
 scf_env_do_scf                       6  5.8    0.001    0.004  204.668  204.670
 scf_env_do_scf_inner_loop           75  6.5    0.004    0.018  160.536  160.537
 velocity_verlet                      5  3.0    0.001    0.001  126.048  126.054
 rebuild_ks_matrix                   81  8.3    0.000    0.001  113.796  113.897
 qs_ks_build_kohn_sham_matrix        81  9.3    0.011    0.017  113.795  113.896
 qs_ks_update_qs_env                103  7.6    0.001    0.001  103.082  103.175
 sum_up_and_integrate                81 10.3    0.033    0.041   99.037   99.052
 integrate_v_rspace                  81 11.3    0.003    0.006   99.003   99.017
 qs_rho_update_rho                   81  7.6    0.000    0.001   97.331   97.347
 calculate_rho_elec                  81  8.6    0.058    0.068   97.330   97.347
 grid_integrate_task_list            81 12.3   92.987   93.849   92.987   93.849
 grid_collocate_task_list            81  9.6   89.226   89.953   89.226   89.953
 init_scf_loop                       28  6.8    0.001    0.001   44.113   44.118
 pw_transfer                       1545 12.0    0.066    0.083   14.657   14.814
 fft_wrap_pw1pw2                   1383 13.1    0.012    0.015   14.521   14.678
 fft_wrap_pw1pw2_200                897 14.1    0.594    0.707   12.783   13.033
 fft3d_ps                          1383 15.1    5.007    6.064   12.541   13.004
 qs_vxc_create                       81 10.3    0.002    0.003   11.760   11.852
 xc_vxc_pw_create                    81 11.3    0.110    0.123   11.759   11.851
 qs_ks_update_qs_env_forces           6  4.8    0.000    0.000   10.813   10.828
 dbcsr_multiply_generic            1586 12.1    0.070    0.080    8.821    8.989
 density_rs2pw                       81  9.6    0.004    0.006    7.608    8.777
 init_scf_run                         6  5.8    0.000    0.001    8.746    8.750
 scf_env_initial_rho_setup            6  6.8    0.000    0.001    8.746    8.749
 mp_alltoall_z22v                  1383 17.1    6.483    7.816    6.483    7.816
 wfi_extrapolate                      6  7.8    0.000    0.004    7.361    7.361
 rs_pw_transfer                     660 11.9    0.009    0.014    5.856    7.328
 xc_rho_set_and_dset_create          81 12.3    0.046    0.059    6.520    6.939
 qs_scf_new_mos                      75  7.5    0.000    0.001    6.844    6.900
 qs_scf_loop_do_ot                   75  8.5    0.000    0.001    6.843    6.899
 build_core_hamiltonian_matrix_       6  4.8    0.000    0.000    5.740    6.461
 ot_scf_mini                         75  9.5    0.002    0.002    6.286    6.324
 mp_waitany                        9732 13.8    4.094    5.625    4.094    5.625
 qs_energies_init_hamiltonians        6  5.8    0.000    0.000    5.224    5.225
 rs_pw_transfer_RS2PW_200            87 11.4    0.255    0.355    3.616    5.083
 yz_to_x                            654 15.5    0.318    0.501    4.269    4.953
 -------------------------------------------------------------------------------

 The number of warnings for this run is : 2
 
 -------------------------------------------------------------------------------
  **** **** ******  **  PROGRAM ENDED AT                 2022-01-03 14:12:36.305
 ***** ** ***  *** **   PROGRAM RAN ON                                   mpcl014
 **    ****   ******    PROGRAM RAN BY                                  pubo1141
 ***** **    ** ** **   PROGRAM PROCESS ID                                 19615
  **** **  *******  **  PROGRAM STOPPED IN /user/pubo1141/simulations/aiida_test
                                           s/cp2k_8.1/md_nvt_low
