# Projected DOS for list 11 of 1 atoms, at iteration step i = 0, E(Fermi) =    -0.185143 a.u.
#     MO Eigenvalue [a.u.]      Occupation                 s                py                pz                px               d-2               d-1                d0               d+1               d+2               f-3               f-2               f-1                f0               f+1               f+2               f+3
       1         -0.942002        2.000000        0.00195690        0.00005432        0.00017615        0.00016395        0.00005246        0.00002903        0.00000628        0.00008708        0.00001721        0.00000220        0.00000647        0.00000358        0.00000106        0.00001077        0.00000213        0.00000000
       2         -0.941975        2.000000        0.00201527        0.00005600        0.00018127        0.00016916        0.00005425        0.00003008        0.00000655        0.00008990        0.00001775        0.00000226        0.00000668        0.00000370        0.00000108        0.00001109        0.00000221        0.00000000
       3         -0.941975        2.000000        0.00184158        0.00005065        0.00016611        0.00015292        0.00004904        0.00002714        0.00000608        0.00008142        0.00001606        0.00000208        0.00000602        0.00000338        0.00000102        0.00001015        0.00000198        0.00000000
       4         -0.941975        2.000000        0.00201537        0.00005611        0.00018129        0.00016911        0.00005417        0.00002992        0.00000657        0.00009011        0.00001784        0.00000226        0.00000669        0.00000368        0.00000108        0.00001110        0.00000220        0.00000000
       5         -0.941963        2.000000        0.00208171        0.00005772        0.00018718        0.00017510        0.00005610        0.00003113        0.00000680        0.00009308        0.00001824        0.00000233        0.00000690        0.00000383        0.00000111        0.00001144        0.00000229        0.00000000
       6         -0.941962        2.000000        0.00208695        0.00005798        0.00018752        0.00017497        0.00005607        0.00003097        0.00000669        0.00009291        0.00001839        0.00000235        0.00000690        0.00000381        0.00000112        0.00001146        0.00000227        0.00000000
       7         -0.941962        2.000000        0.00182836        0.00005010        0.00016486        0.00015214        0.00004900        0.00002705        0.00000609        0.00008087        0.00001590        0.00000206        0.00000599        0.00000337        0.00000101        0.00001007        0.00000198        0.00000000
       8         -0.941962        2.000000        0.00208213        0.00005810        0.00018735        0.00017526        0.00005603        0.00003123        0.00000694        0.00009368        0.00001840        0.00000232        0.00000693        0.00000382        0.00000110        0.00001148        0.00000229        0.00000000
       9         -0.941961        2.000000        0.00183266        0.00005033        0.00016513        0.00015196        0.00004895        0.00002689        0.00000599        0.00008068        0.00001603        0.00000208        0.00000599        0.00000335        0.00000103        0.00001008        0.00000197        0.00000000
      10         -0.941961        2.000000        0.00208681        0.00005834        0.00018765        0.00017508        0.00005598        0.00003106        0.00000683        0.00009348        0.00001855        0.00000234        0.00000694        0.00000381        0.00000111        0.00001150        0.00000227        0.00000000
