# Projected DOS for list 1 of 1 atoms, at iteration step i = 0, E(Fermi) =    -0.185143 a.u.
#     MO Eigenvalue [a.u.]      Occupation                 s                py                pz                px               d-2               d-1                d0               d+1               d+2               f-3               f-2               f-1                f0               f+1               f+2               f+3
       1         -0.942002        2.000000        0.00002131        0.00000000        0.00000000        0.00000000        0.00000000        0.00000000        0.00000000        0.00000000        0.00000000        0.00000004        0.00000000        0.00000000        0.00000005        0.00000000        0.00000000        0.00000000
       2         -0.941975        2.000000        0.00002141        0.00000000        0.00000000        0.00000000        0.00000000        0.00000000        0.00000000        0.00000000        0.00000000        0.00000004        0.00000000        0.00000000        0.00000005        0.00000000        0.00000000        0.00000000
       3         -0.941975        2.000000        0.00002142        0.00000000        0.00000000        0.00000000        0.00000000        0.00000000        0.00000000        0.00000001        0.00000000        0.00000004        0.00000000        0.00000000        0.00000005        0.00000000        0.00000000        0.00000000
       4         -0.941975        2.000000        0.00002141        0.00000000        0.00000000        0.00000000        0.00000000        0.00000001        0.00000000        0.00000000        0.00000000        0.00000004        0.00000000        0.00000000        0.00000005        0.00000000        0.00000000        0.00000000
       5         -0.941963        2.000000        0.00002141        0.00000000        0.00000000        0.00000001        0.00000000        0.00000000        0.00000000        0.00000000        0.00000000        0.00000004        0.00000000        0.00000000        0.00000005        0.00000000        0.00000000        0.00000000
       6         -0.941962        2.000000        0.00002144        0.00000000        0.00000001        0.00000000        0.00000000        0.00000000        0.00000000        0.00000000        0.00000000        0.00000004        0.00000000        0.00000000        0.00000005        0.00000000        0.00000000        0.00000000
       7         -0.941962        2.000000        0.00002144        0.00000001        0.00000000        0.00000000        0.00000000        0.00000000        0.00000000        0.00000000        0.00000000        0.00000004        0.00000000        0.00000000        0.00000005        0.00000000        0.00000000        0.00000000
       8         -0.941962        2.000000        0.00002144        0.00000000        0.00000000        0.00000001        0.00000000        0.00000000        0.00000000        0.00000000        0.00000000        0.00000004        0.00000000        0.00000000        0.00000005        0.00000000        0.00000000        0.00000000
       9         -0.941961        2.000000        0.00002147        0.00000000        0.00000000        0.00000000        0.00000000        0.00000000        0.00000000        0.00000000        0.00000000        0.00000004        0.00000000        0.00000000        0.00000005        0.00000000        0.00000000        0.00000000
      10         -0.941961        2.000000        0.00002146        0.00000000        0.00000000        0.00000000        0.00000000        0.00000000        0.00000000        0.00000000        0.00000000        0.00000004        0.00000000        0.00000000        0.00000005        0.00000000        0.00000000        0.00000000
