# Projected DOS for list 13 of 1 atoms, at iteration step i = 0, E(Fermi) =    -0.185143 a.u.
#     MO Eigenvalue [a.u.]      Occupation                 s                py                pz                px               d-2               d-1                d0               d+1               d+2               f-3               f-2               f-1                f0               f+1               f+2               f+3
       1         -0.942002        2.000000        0.00181305        0.00031557        0.00000690        0.00004227        0.00004103        0.00001478        0.00004429        0.00000028        0.00007628        0.00000193        0.00000026        0.00000619        0.00000100        0.00000142        0.00000001        0.00001341
       2         -0.941975        2.000000        0.00186430        0.00032479        0.00000712        0.00004336        0.00004241        0.00001517        0.00004575        0.00000030        0.00007872        0.00000198        0.00000027        0.00000636        0.00000103        0.00000146        0.00000001        0.00001382
       3         -0.941975        2.000000        0.00171164        0.00029625        0.00000640        0.00004031        0.00003881        0.00001378        0.00004169        0.00000028        0.00007129        0.00000183        0.00000024        0.00000581        0.00000097        0.00000134        0.00000000        0.00001264
       4         -0.941975        2.000000        0.00186459        0.00032490        0.00000709        0.00004333        0.00004248        0.00001529        0.00004577        0.00000029        0.00007854        0.00000199        0.00000026        0.00000640        0.00000102        0.00000146        0.00000001        0.00001378
       5         -0.941963        2.000000        0.00168728        0.00029269        0.00000632        0.00003967        0.00003875        0.00001360        0.00004146        0.00000029        0.00007055        0.00000180        0.00000024        0.00000575        0.00000094        0.00000132        0.00000000        0.00001250
       6         -0.941962        2.000000        0.00169414        0.00029352        0.00000629        0.00003972        0.00003862        0.00001378        0.00004131        0.00000029        0.00007057        0.00000182        0.00000024        0.00000578        0.00000096        0.00000133        0.00000000        0.00001249
       7         -0.941962        2.000000        0.00192636        0.00033645        0.00000737        0.00004468        0.00004442        0.00001567        0.00004757        0.00000030        0.00008151        0.00000203        0.00000027        0.00000661        0.00000104        0.00000151        0.00000001        0.00001429
       8         -0.941962        2.000000        0.00169409        0.00029314        0.00000638        0.00004000        0.00003841        0.00001360        0.00004151        0.00000030        0.00007076        0.00000181        0.00000024        0.00000574        0.00000096        0.00000132        0.00000000        0.00001255
       9         -0.941961        2.000000        0.00193404        0.00033739        0.00000733        0.00004474        0.00004429        0.00001587        0.00004742        0.00000030        0.00008154        0.00000205        0.00000027        0.00000664        0.00000106        0.00000152        0.00000001        0.00001429
      10         -0.941961        2.000000        0.00170072        0.00029392        0.00000635        0.00004004        0.00003827        0.00001378        0.00004135        0.00000030        0.00007077        0.00000183        0.00000024        0.00000576        0.00000097        0.00000133        0.00000000        0.00001253
