 DBCSR| CPU Multiplication driver                                           XSMM
 DBCSR| Multrec recursion limit                                              512
 DBCSR| Multiplication stack size                                           1000
 DBCSR| Maximum elements for images                                    UNLIMITED
 DBCSR| Multiplicative factor virtual images                                   1
 DBCSR| Use multiplication densification                                       T
 DBCSR| Multiplication size stacks                                             3
 DBCSR| Use memory pool for CPU allocation                                     F
 DBCSR| Number of 3D layers                                               SINGLE
 DBCSR| Use MPI memory allocation                                              F
 DBCSR| Use RMA algorithm                                                      F
 DBCSR| Use Communication thread                                               T
 DBCSR| Communication thread load                                             83
 DBCSR| MPI: My node id                                                        0
 DBCSR| MPI: Number of nodes                                                  12
 DBCSR| OMP: Current number of threads                                         2
 DBCSR| OMP: Max number of threads                                             2
 DBCSR| Split modifier for TAS multiplication algorithm                  1.0E+00


  **** **** ******  **  PROGRAM STARTED AT               2021-06-03 15:08:33.633
 ***** ** ***  *** **   PROGRAM STARTED ON                               mpcl003
 **    ****   ******    PROGRAM STARTED BY                              pubo1141
 ***** **    ** ** **   PROGRAM PROCESS ID                                 15614
  **** **  *******  **  PROGRAM STARTED IN /user/pubo1141/simulations/aiida_test
                                           s/cp2k_8.2/cell_opt_interrupted_low

 CP2K| version string:                                          CP2K version 8.2
 CP2K| source code revision number:                                  git:310b7ab
 CP2K| cp2kflags: omp libint fftw3 libxc parallel mpi3 scalapack xsmm spglib mkl
 CP2K|             libvori libbqb
 CP2K| is freely available from                            https://www.cp2k.org/
 CP2K| Program compiled at                         Mon May 31 14:14:56 CEST 2021
 CP2K| Program compiled on                                               hpcl003
 CP2K| Program compiled for                                        carl-mkl-ompi
 CP2K| Data directory path    /cm/shared/uniol/software/8.3/CP2K/8.2-gomkl-2019b
 CP2K| Input file name                                                 aiida.inp

 GLOBAL| Force Environment number                                              1
 GLOBAL| Basis set file name                                        BASIS_MOLOPT
 GLOBAL| Potential file name                                      GTH_POTENTIALS
 GLOBAL| MM Potential file name                                     MM_POTENTIAL
 GLOBAL| Coordinate file name                                      __STD_INPUT__
 GLOBAL| Method name                                                        CP2K
 GLOBAL| Project name                                                      aiida
 GLOBAL| Run type                                                       CELL_OPT
 GLOBAL| FFT library                                                       FFTW3
 GLOBAL| Diagonalization library                                       ScaLAPACK
 GLOBAL| Orthonormality check for eigenvectors                          DISABLED
 GLOBAL| Matrix multiplication library                                    SCALAP
 GLOBAL| All-to-all communication in single precision                          F
 GLOBAL| FFTs using library dependent lengths                                  F
 GLOBAL| Grid backend                                                       AUTO
 GLOBAL| Global print level                                                  LOW
 GLOBAL| MPI I/O enabled                                                       T
 GLOBAL| Total number of message passing processes                            12
 GLOBAL| Number of threads for this process                                    2
 GLOBAL| This output is from process                                           0
 GLOBAL| CPU model name                Intel(R) Xeon(R) CPU E5-2650 v4 @ 2.20GHz
 GLOBAL| CPUID                                                              1002
 GLOBAL| Compiled for CPUID                                                    0

 *** HINT in environment.F:872 :: The compiler target flags (generic) used ***
 *** to build this binary cannot exploit all extensions of this CPU model  ***
 *** (x86_avx2). Consider compiler target flags as part of FCFLAGS and     ***
 *** CFLAGS (ARCH file).                                                   ***


 MEMORY| system memory details [Kb]
 MEMORY|                        rank 0           min           max       average
 MEMORY| MemTotal            131594208     131594208     131594208     131594208
 MEMORY| MemFree              84156552      84156552      84156956      84156754
 MEMORY| Buffers                 30208         30208         30208         30208
 MEMORY| Cached               36635368      36635368      36635368      36635368
 MEMORY| Slab                  2029068       2029068       2029068       2029068
 MEMORY| SReclaimable           887756        887756        887756        887756
 MEMORY| MemLikelyFree       121709884     121709884     121710288     121710086


 GENERATE|  Preliminary Number of Bonds generated:                             0
 GENERATE|  Achieved consistency in connectivity generation.

 *******************************************************************************
 *******************************************************************************
 **                                                                           **
 **     #####                         ##              ##                      **
 **    ##   ##            ##          ##              ##                      **
 **   ##     ##                       ##            ######                    **
 **   ##     ##  ##   ##  ##   #####  ##  ##   ####   ##    #####    #####    **
 **   ##     ##  ##   ##  ##  ##      ## ##   ##      ##   ##   ##  ##   ##   **
 **   ##  ## ##  ##   ##  ##  ##      ####     ###    ##   ######   ######    **
 **    ##  ###   ##   ##  ##  ##      ## ##      ##   ##   ##       ##        **
 **     #######   #####   ##   #####  ##  ##  ####    ##    #####   ##        **
 **           ##                                                    ##        **
 **                                                                           **
 **                                                ... make the atoms dance   **
 **                                                                           **
 **            Copyright (C) by CP2K developers group (2000-2021)             **
 **                      J. Chem. Phys. 152, 194103 (2020)                    **
 **                                                                           **
 *******************************************************************************


 TOTAL NUMBERS AND MAXIMUM NUMBERS

  Total number of            - Atomic kinds:                                   2
                             - Atoms:                                          4
                             - Shell sets:                                     4
                             - Shells:                                        23
                             - Primitive Cartesian functions:                 23
                             - Cartesian basis functions:                     59
                             - Spherical basis functions:                     55

  Maximum angular momentum of- Orbital basis functions:                        2
                             - Local part of the GTH pseudopotential:          2
                             - Non-local part of the GTH pseudopotential:      4


 SCF PARAMETERS         Density guess:                                   RESTART
                        --------------------------------------------------------
                        max_scf:                                             150
                        max_scf_history:                                       0
                        max_diis:                                              4
                        --------------------------------------------------------
                        eps_scf:                                        1.00E-06
                        eps_scf_history:                                0.00E+00
                        eps_diis:                                       1.00E-01
                        eps_eigval:                                     1.00E-05
                        --------------------------------------------------------
                        level_shift [a.u.]:                                 0.00
                        --------------------------------------------------------
                        Mixing method:                            BROYDEN_MIXING
                                                charge density mixing in g-space
                        --------------------------------------------------------
                        No outer SCF

 KPOINTS| Number of kpoint groups                                              2
 KPOINTS| Size of each kpoint group                                            6
 KPOINTS| Number of kpoints per group                                          7

 CELL_OPT| Pressure tolerance [bar]:                                       100.0
 CELL_OPT| Keep angles between the cell vectors:                              NO
 CELL_OPT| Keep cell symmetry:                                                NO
 CELL_OPT| Constraint:                                                      NONE

 BFGS| Use rational function optimization for step estimation:                NO
 BFGS| Use model Hessian for initial guess:                                   NO
 BFGS| Restart Hessian:                                                       NO
 BFGS| Trust radius:                                                       0.472

 *******************************************************************************
 ***                     STARTING   CELL   OPTIMIZATION                      ***
 ***                                   BFGS                                  ***
 *******************************************************************************

 CELL| Volume [angstrom^3]:                                           204.400073
 CELL| Vector a [angstrom]:       6.612     0.000     0.000   |a| =     6.611987
 CELL| Vector b [angstrom]:       3.306     5.726     0.000   |b| =     6.611987
 CELL| Vector c [angstrom]:       3.306     1.909     5.399   |c| =     6.611987
 CELL| Angle (b,c), alpha [degree]:                                    60.000000
 CELL| Angle (a,c), beta  [degree]:                                    60.000000
 CELL| Angle (a,b), gamma [degree]:                                    60.000000
 CELL| Numerically orthorhombic:                                              NO

 Number of electrons:                                                         32
 Number of occupied orbitals:                                                 16
 Number of molecular orbitals:                                                16

 Number of orbital functions:                                                 55
 Number of independent orbital functions:                                     55

 Extrapolation method: initial_guess

 *** WARNING in qs_initial_guess.F:309 :: User requested to restart the    ***
 *** wavefunction from the file named: aiida-RESTART.kp. This file does    ***
 *** not exist. Please check the existence of the file or change properly  ***
 *** the value of the keyword WFN_RESTART_FILE_NAME. Calculation continues ***
 *** using ATOMIC GUESS.                                                   ***



 SCF WAVEFUNCTION OPTIMIZATION

  Step     Update method      Time    Convergence         Total energy    Change
  ------------------------------------------------------------------------------
     1 NoMix/Diag. 0.30E+00    0.3     0.67180851       -66.3624596855 -6.64E+01
     2 Broy./Diag. 0.30E+00    0.4     0.17904047       -66.1642162018  1.98E-01
     3 Broy./Diag. 0.30E+00    0.4     0.28596398       -66.1056207366  5.86E-02
     4 Broy./Diag. 0.30E+00    0.4     0.09518992       -66.0357253768  6.99E-02
     5 Broy./Diag. 0.30E+00    0.4     0.07064390       -65.9749806640  6.07E-02
     6 Broy./Diag. 0.30E+00    0.4     0.00796270       -65.9775410785 -2.56E-03
     7 Broy./Diag. 0.30E+00    0.4     0.00515401       -65.9840324563 -6.49E-03
     8 Broy./Diag. 0.30E+00    0.4     0.00030131       -65.9851158857 -1.08E-03
     9 Broy./Diag. 0.30E+00    0.4     0.00021769       -65.9847011141  4.15E-04
    10 Broy./Diag. 0.30E+00    0.4     0.00002458       -65.9845125652  1.89E-04
    11 Broy./Diag. 0.30E+00    0.4     0.00001186       -65.9844813799  3.12E-05
    12 Broy./Diag. 0.30E+00    0.4     0.00000369       -65.9844823815 -1.00E-06
    13 Broy./Diag. 0.30E+00    0.4     0.00000019       -65.9844856223 -3.24E-06

  *** SCF run converged in    13 steps ***


  Electronic density on regular grids:        -31.9999999984        0.0000000016
  Core density on regular grids:               31.9999994903       -0.0000005097
  Total charge density on r-space grids:       -0.0000005080
  Total charge density g-space grids:          -0.0000005080

  Overlap energy of the core charge distribution:               0.00000000000000
  Self energy of the core charge distribution:               -138.89582544120611
  Core Hamiltonian energy:                                     27.23644503718327
  Hartree energy:                                              56.69594605852274
  Exchange-correlation energy:                                -11.02105127676880

  Total energy:                                               -65.98448562226891

 ENERGY| Total FORCE_EVAL ( QS ) energy [a.u.]:              -65.984485725661557

 --------  Informations at step =     0 ------------
  Optimization Method        =                 BFGS
  Total Energy               =       -65.9844857257
  Internal Pressure [bar]    =      2636.6857888790
  Used time                  =                6.134
 ---------------------------------------------------

 --------------------------
 OPTIMIZATION STEP:      1
 --------------------------

 CELL| Volume [angstrom^3]:                                           204.473539
 CELL| Vector a [angstrom]:       6.612     0.000     0.000   |a| =     6.612034
 CELL| Vector b [angstrom]:       3.306     5.727     0.000   |b| =     6.612759
 CELL| Vector c [angstrom]:       3.306     1.908     5.400   |c| =     6.612759
 CELL| Angle (b,c), alpha [degree]:                                    60.008008
 CELL| Angle (a,c), beta  [degree]:                                    60.003861
 CELL| Angle (a,b), gamma [degree]:                                    60.003860
 CELL| Numerically orthorhombic:                                              NO

 Number of electrons:                                                         32
 Number of occupied orbitals:                                                 16
 Number of molecular orbitals:                                                16

 Number of orbital functions:                                                 55
 Number of independent orbital functions:                                     55

 Extrapolation method: initial_guess


 SCF WAVEFUNCTION OPTIMIZATION

  Step     Update method      Time    Convergence         Total energy    Change
  ------------------------------------------------------------------------------
     1 Broy./Diag. 0.30E+00    0.3     0.00217040       -65.9843787329 -6.60E+01
     2 Broy./Diag. 0.30E+00    0.4     0.00020648       -65.9849031527 -5.24E-04
     3 Broy./Diag. 0.30E+00    0.4     0.00017519       -65.9847040304  1.99E-04
     4 Broy./Diag. 0.30E+00    0.4     0.00006909       -65.9845542227  1.50E-04
     5 Broy./Diag. 0.30E+00    0.4     0.00000529       -65.9845225371  3.17E-05
     6 Broy./Diag. 0.30E+00    0.4     0.00000794       -65.9845430249 -2.05E-05
     7 Broy./Diag. 0.30E+00    0.4     0.00000245       -65.9845528939 -9.87E-06
     8 Broy./Diag. 0.30E+00    0.4     0.00000012       -65.9845541357 -1.24E-06

  *** SCF run converged in     8 steps ***


  Electronic density on regular grids:        -31.9999999833        0.0000000167
  Core density on regular grids:               31.9999994926       -0.0000005074
  Total charge density on r-space grids:       -0.0000004907
  Total charge density g-space grids:          -0.0000004907

  Overlap energy of the core charge distribution:               0.00000000000000
  Self energy of the core charge distribution:               -138.89582544120611
  Core Hamiltonian energy:                                     27.23582582004095
  Hartree energy:                                              56.69622374892830
  Exchange-correlation energy:                                -11.02077826345093

  Total energy:                                               -65.98455413568779

 ENERGY| Total FORCE_EVAL ( QS ) energy [a.u.]:              -65.984552684542081

 --------  Informations at step =     1 ------------
  Optimization Method        =                 BFGS
  Total Energy               =       -65.9845526845
  Internal Pressure [bar]    =      2582.9845335589
  Real energy change         =        -0.0000669589
  Predicted change in energy =        -0.0000340222
  Scaling factor             =         0.0000000000
  Step size                  =         0.0052184923
  Trust radius               =         0.4724315332
  Decrease in energy         =                  YES
  Used time                  =                4.210

  Convergence check :
  Max. step size             =         0.0052184923
  Conv. limit for step size  =         0.0030000000
  Convergence in step size   =                   NO
  RMS step size              =         0.0019442856
  Conv. limit for RMS step   =         0.0015000000
  Convergence in RMS step    =                   NO
  Max. gradient              =         0.0051065877
  Conv. limit for gradients  =         0.0000190000
  Conv. for gradients        =                   NO
  RMS gradient               =         0.0019051315
  Conv. limit for RMS grad.  =         0.0003000000
  Conv. for gradients        =                   NO
  Pressure Deviation [bar]   =      2615.8378188807
  Pressure Tolerance [bar]   =       100.0000000000
  Conv. for  PRESSURE        =                   NO
 ---------------------------------------------------

 --------------------------
 OPTIMIZATION STEP:      2
 --------------------------

 CELL| Volume [angstrom^3]:                                           208.062828
 CELL| Vector a [angstrom]:       6.614     0.000     0.000   |a| =     6.614412
 CELL| Vector b [angstrom]:       3.306     5.770     0.000   |b| =     6.650317
 CELL| Vector c [angstrom]:       3.306     1.892     5.451   |c| =     6.650396
 CELL| Angle (b,c), alpha [degree]:                                    60.393715
 CELL| Angle (a,c), beta  [degree]:                                    60.190818
 CELL| Angle (a,b), gamma [degree]:                                    60.190427
 CELL| Numerically orthorhombic:                                              NO

 Number of electrons:                                                         32
 Number of occupied orbitals:                                                 16
 Number of molecular orbitals:                                                16

 Number of orbital functions:                                                 55
 Number of independent orbital functions:                                     55

 Extrapolation method: initial_guess


 SCF WAVEFUNCTION OPTIMIZATION

  Step     Update method      Time    Convergence         Total energy    Change
  ------------------------------------------------------------------------------
     1 Broy./Diag. 0.30E+00    0.3     0.11666512       -65.9812829320 -6.60E+01
     2 Broy./Diag. 0.30E+00    0.4     0.01137973       -66.0041633379 -2.29E-02
     3 Broy./Diag. 0.30E+00    0.4     0.00965136       -65.9942930050  9.87E-03
     4 Broy./Diag. 0.30E+00    0.4     0.00345500       -65.9865809764  7.71E-03
     5 Broy./Diag. 0.30E+00    0.4     0.00024572       -65.9847635634  1.82E-03
     6 Broy./Diag. 0.30E+00    0.4     0.00039196       -65.9858288652 -1.07E-03
     7 Broy./Diag. 0.30E+00    0.4     0.00010703       -65.9863137020 -4.85E-04
     8 Broy./Diag. 0.30E+00    0.4     0.00000645       -65.9863664408 -5.27E-05
     9 Broy./Diag. 0.30E+00    0.4     0.00001922       -65.9863028377  6.36E-05
    10 Broy./Diag. 0.30E+00    0.4     0.00000043       -65.9862849755  1.79E-05

  *** SCF run converged in    10 steps ***


  Electronic density on regular grids:        -32.0000031557       -0.0000031557
  Core density on regular grids:               31.9999995019       -0.0000004981
  Total charge density on r-space grids:       -0.0000036538
  Total charge density g-space grids:          -0.0000036538

  Overlap energy of the core charge distribution:               0.00000000000000
  Self energy of the core charge distribution:               -138.89582544120611
  Core Hamiltonian energy:                                     27.21057454391692
  Hartree energy:                                              56.70793614408890
  Exchange-correlation energy:                                -11.00897022227964

  Total energy:                                               -65.98628497547993

 ENERGY| Total FORCE_EVAL ( QS ) energy [a.u.]:              -65.986286362817836

 --------  Informations at step =     2 ------------
  Optimization Method        =                 BFGS
  Total Energy               =       -65.9862863628
  Internal Pressure [bar]    =       501.9779460204
  Real energy change         =        -0.0017336783
  Predicted change in energy =        -0.0016227155
  Scaling factor             =         0.0000000000
  Step size                  =         0.2536770541
  Trust radius               =         0.4724315332
  Decrease in energy         =                  YES
  Used time                  =                5.066

  Convergence check :
  Max. step size             =         0.2536770541
  Conv. limit for step size  =         0.0030000000
  Convergence in step size   =                   NO
  RMS step size              =         0.0946400392
  Conv. limit for RMS step   =         0.0015000000
  Convergence in RMS step    =                   NO
  Max. gradient              =         0.0009463453
  Conv. limit for gradients  =         0.0000190000
  Conv. for gradients        =                   NO
  RMS gradient               =         0.0003973091
  Conv. limit for RMS grad.  =         0.0003000000
  Conv. for gradients        =                   NO
  Pressure Deviation [bar]   =       534.8312313422
  Pressure Tolerance [bar]   =       100.0000000000
  Conv. for  PRESSURE        =                   NO
 ---------------------------------------------------

 --------------------------
 OPTIMIZATION STEP:      3
 --------------------------

 CELL| Volume [angstrom^3]:                                           208.494868
 CELL| Vector a [angstrom]:       6.615     0.000     0.000   |a| =     6.614957
 CELL| Vector b [angstrom]:       3.306     5.775     0.000   |b| =     6.654751
 CELL| Vector c [angstrom]:       3.306     1.891     5.457   |c| =     6.654849
 CELL| Angle (b,c), alpha [degree]:                                    60.437895
 CELL| Angle (a,c), beta  [degree]:                                    60.212731
 CELL| Angle (a,b), gamma [degree]:                                    60.212249
 CELL| Numerically orthorhombic:                                              NO

 Number of electrons:                                                         32
 Number of occupied orbitals:                                                 16
 Number of molecular orbitals:                                                16

 Number of orbital functions:                                                 55
 Number of independent orbital functions:                                     55

 Extrapolation method: initial_guess


 SCF WAVEFUNCTION OPTIMIZATION

  Step     Update method      Time    Convergence         Total energy    Change
  ------------------------------------------------------------------------------
     1 Broy./Diag. 0.30E+00    0.2     0.01872314       -65.9857999724 -6.60E+01
     2 Broy./Diag. 0.30E+00    0.4     0.00031828       -65.9884489840 -2.65E-03
     3 Broy./Diag. 0.30E+00    0.4     0.00059272       -65.9867463579  1.70E-03
     4 Broy./Diag. 0.30E+00    0.4     0.00017326       -65.9861649824  5.81E-04
     5 Broy./Diag. 0.30E+00    0.4     0.00002302       -65.9861949582 -3.00E-05
     6 Broy./Diag. 0.30E+00    0.4     0.00002624       -65.9862798337 -8.49E-05
     7 Broy./Diag. 0.30E+00    0.4     0.00000625       -65.9863168992 -3.71E-05
     8 Broy./Diag. 0.30E+00    0.4     0.00000084       -65.9863199156 -3.02E-06

  *** SCF run converged in     8 steps ***


  Electronic density on regular grids:        -31.9999999652        0.0000000348
  Core density on regular grids:               31.9999994930       -0.0000005070
  Total charge density on r-space grids:       -0.0000004722
  Total charge density g-space grids:          -0.0000004722

  Overlap energy of the core charge distribution:               0.00000000000000
  Self energy of the core charge distribution:               -138.89582544120611
  Core Hamiltonian energy:                                     27.20797559541894
  Hartree energy:                                              56.70926150919264
  Exchange-correlation energy:                                -11.00773157897666

  Total energy:                                               -65.98631991557119

 ENERGY| Total FORCE_EVAL ( QS ) energy [a.u.]:              -65.986312257856298

 --------  Informations at step =     3 ------------
  Optimization Method        =                 BFGS
  Total Energy               =       -65.9863122579
  Internal Pressure [bar]    =       295.3559458537
  Real energy change         =        -0.0000258950
  Predicted change in energy =        -0.0000216063
  Scaling factor             =         0.0000000000
  Step size                  =         0.0299112453
  Trust radius               =         0.4724315332
  Decrease in energy         =                  YES
  Used time                  =                4.223

  Convergence check :
  Max. step size             =         0.0299112453
  Conv. limit for step size  =         0.0030000000
  Convergence in step size   =                   NO
  RMS step size              =         0.0112735289
  Conv. limit for RMS step   =         0.0015000000
  Convergence in RMS step    =                   NO
  Max. gradient              =         0.0010504478
  Conv. limit for gradients  =         0.0000190000
  Conv. for gradients        =                   NO
  RMS gradient               =         0.0003827426
  Conv. limit for RMS grad.  =         0.0003000000
  Conv. for gradients        =                   NO
  Pressure Deviation [bar]   =       328.2092311754
  Pressure Tolerance [bar]   =       100.0000000000
  Conv. for  PRESSURE        =                   NO
 ---------------------------------------------------

 --------------------------
 OPTIMIZATION STEP:      4
 --------------------------

 CELL| Volume [angstrom^3]:                                           208.600151
 CELL| Vector a [angstrom]:       6.615     0.000     0.000   |a| =     6.615378
 CELL| Vector b [angstrom]:       3.306     5.777     0.000   |b| =     6.655753
 CELL| Vector c [angstrom]:       3.306     1.890     5.459   |c| =     6.655855
 CELL| Angle (b,c), alpha [degree]:                                    60.446824
 CELL| Angle (a,c), beta  [degree]:                                    60.217627
 CELL| Angle (a,b), gamma [degree]:                                    60.217127
 CELL| Numerically orthorhombic:                                              NO

 Number of electrons:                                                         32
 Number of occupied orbitals:                                                 16
 Number of molecular orbitals:                                                16

 Number of orbital functions:                                                 55
 Number of independent orbital functions:                                     55

 Extrapolation method: initial_guess


 SCF WAVEFUNCTION OPTIMIZATION

  Step     Update method      Time    Convergence         Total energy    Change
  ------------------------------------------------------------------------------
     1 Broy./Diag. 0.30E+00    0.2     0.05285490       -65.9861880806 -6.60E+01
     2 Broy./Diag. 0.30E+00    0.4     0.00011035       -65.9868772278 -6.89E-04
     3 Broy./Diag. 0.30E+00    0.4     0.00013818       -65.9864652153  4.12E-04
     4 Broy./Diag. 0.30E+00    0.4     0.00006146       -65.9862862763  1.79E-04
     5 Broy./Diag. 0.30E+00    0.4     0.00000717       -65.9862828807  3.40E-06
     6 Broy./Diag. 0.30E+00    0.4     0.00000661       -65.9863052381 -2.24E-05
     7 Broy./Diag. 0.30E+00    0.4     0.00000195       -65.9863163524 -1.11E-05
     8 Broy./Diag. 0.30E+00    0.4     0.00000015       -65.9863179498 -1.60E-06

  *** SCF run converged in     8 steps ***


  Electronic density on regular grids:        -31.9999999274        0.0000000726
  Core density on regular grids:               31.9999994945       -0.0000005055
  Total charge density on r-space grids:       -0.0000004329
  Total charge density g-space grids:          -0.0000004329

  Overlap energy of the core charge distribution:               0.00000000000000
  Self energy of the core charge distribution:               -138.89582544120611
  Core Hamiltonian energy:                                     27.20731737611687
  Hartree energy:                                              56.70961302906390
  Exchange-correlation energy:                                -11.00742291373066

  Total energy:                                               -65.98631794975601

 ENERGY| Total FORCE_EVAL ( QS ) energy [a.u.]:              -65.986316071135136

 --------  Informations at step =     4 ------------
  Optimization Method        =                 BFGS
  Total Energy               =       -65.9863160711
  Internal Pressure [bar]    =       242.4578451455
  Real energy change         =        -0.0000038133
  Predicted change in energy =        -0.0000023640
  Scaling factor             =         0.0000000000
  Step size                  =         0.0067853351
  Trust radius               =         0.4724315332
  Decrease in energy         =                  YES
  Used time                  =                4.109

  Convergence check :
  Max. step size             =         0.0067853351
  Conv. limit for step size  =         0.0030000000
  Convergence in step size   =                   NO
  RMS step size              =         0.0027185346
  Conv. limit for RMS step   =         0.0015000000
  Convergence in RMS step    =                   NO
  Max. gradient              =         0.0010618466
  Conv. limit for gradients  =         0.0000190000
  Conv. for gradients        =                   NO
  RMS gradient               =         0.0003867236
  Conv. limit for RMS grad.  =         0.0003000000
  Conv. for gradients        =                   NO
  Pressure Deviation [bar]   =       275.3111304673
  Pressure Tolerance [bar]   =       100.0000000000
  Conv. for  PRESSURE        =                   NO
 ---------------------------------------------------

 --------------------------
 OPTIMIZATION STEP:      5
 --------------------------

 CELL| Volume [angstrom^3]:                                           208.771431
 CELL| Vector a [angstrom]:       6.617     0.000     0.000   |a| =     6.616740
 CELL| Vector b [angstrom]:       3.306     5.778     0.000   |b| =     6.657200
 CELL| Vector c [angstrom]:       3.306     1.890     5.460   |c| =     6.657306
 CELL| Angle (b,c), alpha [degree]:                                    60.457046
 CELL| Angle (a,c), beta  [degree]:                                    60.224551
 CELL| Angle (a,b), gamma [degree]:                                    60.224030
 CELL| Numerically orthorhombic:                                              NO

 Number of electrons:                                                         32
 Number of occupied orbitals:                                                 16
 Number of molecular orbitals:                                                16

 Number of orbital functions:                                                 55
 Number of independent orbital functions:                                     55

 Extrapolation method: initial_guess


 SCF WAVEFUNCTION OPTIMIZATION

  Step     Update method      Time    Convergence         Total energy    Change
  ------------------------------------------------------------------------------
     1 Broy./Diag. 0.30E+00    0.3     0.05210460       -65.9861059080 -6.60E+01
     2 Broy./Diag. 0.30E+00    0.4     0.00020489       -65.9873155363 -1.21E-03
     3 Broy./Diag. 0.30E+00    0.4     0.00024940       -65.9866004683  7.15E-04
     4 Broy./Diag. 0.30E+00    0.4     0.00010458       -65.9862848431  3.16E-04
     5 Broy./Diag. 0.30E+00    0.4     0.00001185       -65.9862721980  1.26E-05
     6 Broy./Diag. 0.30E+00    0.4     0.00001012       -65.9863063162 -3.41E-05
     7 Broy./Diag. 0.30E+00    0.4     0.00000366       -65.9863248022 -1.85E-05
     8 Broy./Diag. 0.30E+00    0.4     0.00000024       -65.9863279417 -3.14E-06

  *** SCF run converged in     8 steps ***


  Electronic density on regular grids:        -31.9999999050        0.0000000950
  Core density on regular grids:               31.9999994967       -0.0000005033
  Total charge density on r-space grids:       -0.0000004083
  Total charge density g-space grids:          -0.0000004083

  Overlap energy of the core charge distribution:               0.00000000000000
  Self energy of the core charge distribution:               -138.89582544120611
  Core Hamiltonian energy:                                     27.20616789072569
  Hartree energy:                                              56.71022730108871
  Exchange-correlation energy:                                -11.00689769231011

  Total energy:                                               -65.98632794170183

 ENERGY| Total FORCE_EVAL ( QS ) energy [a.u.]:              -65.986324935104534

 --------  Informations at step =     5 ------------
  Optimization Method        =                 BFGS
  Total Energy               =       -65.9863249351
  Internal Pressure [bar]    =       150.0577922171
  Real energy change         =        -0.0000088640
  Predicted change in energy =        -0.0000056692
  Scaling factor             =         0.0000000000
  Step size                  =         0.0098879796
  Trust radius               =         0.4724315332
  Decrease in energy         =                  YES
  Used time                  =                4.149

  Convergence check :
  Max. step size             =         0.0098879796
  Conv. limit for step size  =         0.0030000000
  Convergence in step size   =                   NO
  RMS step size              =         0.0045434861
  Conv. limit for RMS step   =         0.0015000000
  Convergence in RMS step    =                   NO
  Max. gradient              =         0.0010478577
  Conv. limit for gradients  =         0.0000190000
  Conv. for gradients        =                   NO
  RMS gradient               =         0.0003910401
  Conv. limit for RMS grad.  =         0.0003000000
  Conv. for gradients        =                   NO
  Pressure Deviation [bar]   =       182.9110775389
  Pressure Tolerance [bar]   =       100.0000000000
  Conv. for  PRESSURE        =                   NO
 ---------------------------------------------------

 --------------------------
 OPTIMIZATION STEP:      6
 --------------------------

 CELL| Volume [angstrom^3]:                                           209.047692
 CELL| Vector a [angstrom]:       6.620     0.000     0.000   |a| =     6.620499
 CELL| Vector b [angstrom]:       3.306     5.780     0.000   |b| =     6.659112
 CELL| Vector c [angstrom]:       3.306     1.891     5.463   |c| =     6.659219
 CELL| Angle (b,c), alpha [degree]:                                    60.463594
 CELL| Angle (a,c), beta  [degree]:                                    60.233291
 CELL| Angle (a,b), gamma [degree]:                                    60.232766
 CELL| Numerically orthorhombic:                                              NO

 Number of electrons:                                                         32
 Number of occupied orbitals:                                                 16
 Number of molecular orbitals:                                                16

 Number of orbital functions:                                                 55
 Number of independent orbital functions:                                     55

 Extrapolation method: initial_guess


 SCF WAVEFUNCTION OPTIMIZATION

  Step     Update method      Time    Convergence         Total energy    Change
  ------------------------------------------------------------------------------
     1 Broy./Diag. 0.30E+00    0.2     0.11605751       -65.9859811306 -6.60E+01
     2 Broy./Diag. 0.30E+00    0.4     0.00039243       -65.9880897851 -2.11E-03
     3 Broy./Diag. 0.30E+00    0.5     0.00046163       -65.9868570476  1.23E-03
     4 Broy./Diag. 0.30E+00    0.4     0.00018085       -65.9863099658  5.47E-04
     5 Broy./Diag. 0.30E+00    0.4     0.00001898       -65.9862703938  3.96E-05
     6 Broy./Diag. 0.30E+00    0.4     0.00001548       -65.9863136206 -4.32E-05
     7 Broy./Diag. 0.30E+00    0.4     0.00000728       -65.9863440566 -3.04E-05
     8 Broy./Diag. 0.30E+00    0.4     0.00000058       -65.9863509319 -6.88E-06

  *** SCF run converged in     8 steps ***


  Electronic density on regular grids:        -32.0000000264       -0.0000000264
  Core density on regular grids:               31.9999994959       -0.0000005041
  Total charge density on r-space grids:       -0.0000005305
  Total charge density g-space grids:          -0.0000005305

  Overlap energy of the core charge distribution:               0.00000000000000
  Self energy of the core charge distribution:               -138.89582544120611
  Core Hamiltonian energy:                                     27.20418594336353
  Hartree energy:                                              56.71129506629714
  Exchange-correlation energy:                                -11.00600650034883

  Total energy:                                               -65.98635093189426

 ENERGY| Total FORCE_EVAL ( QS ) energy [a.u.]:              -65.986346066059838

 --------  Informations at step =     6 ------------
  Optimization Method        =                 BFGS
  Total Energy               =       -65.9863460661
  Internal Pressure [bar]    =       -11.9649360115
  Real energy change         =        -0.0000211310
  Predicted change in energy =        -0.0000134144
  Scaling factor             =         0.0000000000
  Step size                  =         0.0154221684
  Trust radius               =         0.4724315332
  Decrease in energy         =                  YES
  Used time                  =                4.219

  Convergence check :
  Max. step size             =         0.0154221684
  Conv. limit for step size  =         0.0030000000
  Convergence in step size   =                   NO
  RMS step size              =         0.0081540457
  Conv. limit for RMS step   =         0.0015000000
  Convergence in RMS step    =                   NO
  Max. gradient              =         0.0009574793
  Conv. limit for gradients  =         0.0000190000
  Conv. for gradients        =                   NO
  RMS gradient               =         0.0003891840
  Conv. limit for RMS grad.  =         0.0003000000
  Conv. for gradients        =                   NO
  Pressure Deviation [bar]   =        20.8883493102
  Pressure Tolerance [bar]   =       100.0000000000
  Conv. for  PRESSURE        =                  YES
 ---------------------------------------------------

 --------------------------
 OPTIMIZATION STEP:      7
 --------------------------

 CELL| Volume [angstrom^3]:                                           209.405125
 CELL| Vector a [angstrom]:       6.629     0.000     0.000   |a| =     6.628609
 CELL| Vector b [angstrom]:       3.306     5.782     0.000   |b| =     6.660716
 CELL| Vector c [angstrom]:       3.306     1.893     5.464   |c| =     6.660813
 CELL| Angle (b,c), alpha [degree]:                                    60.451396
 CELL| Angle (a,c), beta  [degree]:                                    60.239524
 CELL| Angle (a,b), gamma [degree]:                                    60.239048
 CELL| Numerically orthorhombic:                                              NO

 Number of electrons:                                                         32
 Number of occupied orbitals:                                                 16
 Number of molecular orbitals:                                                16

 Number of orbital functions:                                                 55
 Number of independent orbital functions:                                     55

 Extrapolation method: initial_guess


 SCF WAVEFUNCTION OPTIMIZATION

  Step     Update method      Time    Convergence         Total energy    Change
  ------------------------------------------------------------------------------
     1 Broy./Diag. 0.30E+00    0.3     0.11633811       -65.9859264772 -6.60E+01
     2 Broy./Diag. 0.30E+00    0.4     0.00062233       -65.9888828827 -2.96E-03
     3 Broy./Diag. 0.30E+00    0.4     0.00071499       -65.9871440857  1.74E-03
     4 Broy./Diag. 0.30E+00    0.4     0.00026194       -65.9863836417  7.60E-04
     5 Broy./Diag. 0.30E+00    0.4     0.00003144       -65.9863051702  7.85E-05
     6 Broy./Diag. 0.30E+00    0.4     0.00002727       -65.9863406108 -3.54E-05
     7 Broy./Diag. 0.30E+00    0.4     0.00001045       -65.9863790762 -3.85E-05
     8 Broy./Diag. 0.30E+00    0.4     0.00000121       -65.9863908438 -1.18E-05
     9 Broy./Diag. 0.30E+00    0.4     0.00000156       -65.9863873486  3.50E-06
    10 Broy./Diag. 0.30E+00    0.4     0.00000024       -65.9863852453  2.10E-06

  *** SCF run converged in    10 steps ***


  Electronic density on regular grids:        -32.0000003438       -0.0000003438
  Core density on regular grids:               31.9999994916       -0.0000005084
  Total charge density on r-space grids:       -0.0000008522
  Total charge density g-space grids:          -0.0000008522

  Overlap energy of the core charge distribution:               0.00000000000000
  Self energy of the core charge distribution:               -138.89582544120611
  Core Hamiltonian energy:                                     27.20144646241143
  Hartree energy:                                              56.71278630365002
  Exchange-correlation energy:                                -11.00479257014779

  Total energy:                                               -65.98638524529245

 ENERGY| Total FORCE_EVAL ( QS ) energy [a.u.]:              -65.986384727612915

 --------  Informations at step =     7 ------------
  Optimization Method        =                 BFGS
  Total Energy               =       -65.9863847276
  Internal Pressure [bar]    =      -237.7551324244
  Real energy change         =        -0.0000386616
  Predicted change in energy =        -0.0000257916
  Scaling factor             =         0.0000000000
  Step size                  =         0.0303047851
  Trust radius               =         0.4724315332
  Decrease in energy         =                  YES
  Used time                  =                4.878

  Convergence check :
  Max. step size             =         0.0303047851
  Conv. limit for step size  =         0.0030000000
  Convergence in step size   =                   NO
  RMS step size              =         0.0134668166
  Conv. limit for RMS step   =         0.0015000000
  Convergence in RMS step    =                   NO
  Max. gradient              =         0.0007202743
  Conv. limit for gradients  =         0.0000190000
  Conv. for gradients        =                   NO
  RMS gradient               =         0.0003711720
  Conv. limit for RMS grad.  =         0.0003000000
  Conv. for gradients        =                   NO
  Pressure Deviation [bar]   =      -204.9018471026
  Pressure Tolerance [bar]   =       100.0000000000
  Conv. for  PRESSURE        =                   NO
 ---------------------------------------------------

 --------------------------
 OPTIMIZATION STEP:      8
 --------------------------

 CELL| Volume [angstrom^3]:                                           209.627672
 CELL| Vector a [angstrom]:       6.640     0.000     0.000   |a| =     6.639748
 CELL| Vector b [angstrom]:       3.307     5.781     0.000   |b| =     6.660098
 CELL| Vector c [angstrom]:       3.307     1.898     5.461   |c| =     6.660170
 CELL| Angle (b,c), alpha [degree]:                                    60.405017
 CELL| Angle (a,c), beta  [degree]:                                    60.233857
 CELL| Angle (a,b), gamma [degree]:                                    60.233500
 CELL| Numerically orthorhombic:                                              NO

 Number of electrons:                                                         32
 Number of occupied orbitals:                                                 16
 Number of molecular orbitals:                                                16

 Number of orbital functions:                                                 55
 Number of independent orbital functions:                                     55

 Extrapolation method: initial_guess


 SCF WAVEFUNCTION OPTIMIZATION

  Step     Update method      Time    Convergence         Total energy    Change
  ------------------------------------------------------------------------------
     1 Broy./Diag. 0.30E+00    0.2     0.09309577       -65.9861595032 -6.60E+01
     2 Broy./Diag. 0.30E+00    0.4     0.00051626       -65.9882282206 -2.07E-03
     3 Broy./Diag. 0.30E+00    0.4     0.00071981       -65.9869808682  1.25E-03
     4 Broy./Diag. 0.30E+00    0.4     0.00017918       -65.9864604048  5.20E-04
     5 Broy./Diag. 0.30E+00    0.4     0.00003262       -65.9863948135  6.56E-05
     6 Broy./Diag. 0.30E+00    0.4     0.00002989       -65.9864048006 -9.99E-06
     7 Broy./Diag. 0.30E+00    0.4     0.00000564       -65.9864254486 -2.06E-05
     8 Broy./Diag. 0.30E+00    0.4     0.00000192       -65.9864349664 -9.52E-06
     9 Broy./Diag. 0.30E+00    0.4     0.00000092       -65.9864341988  7.68E-07

  *** SCF run converged in     9 steps ***


  Electronic density on regular grids:        -32.0000006020       -0.0000006020
  Core density on regular grids:               31.9999994984       -0.0000005016
  Total charge density on r-space grids:       -0.0000011037
  Total charge density g-space grids:          -0.0000011037

  Overlap energy of the core charge distribution:               0.00000000000000
  Self energy of the core charge distribution:               -138.89582544120611
  Core Hamiltonian energy:                                     27.19953212911402
  Hartree energy:                                              56.71381419245973
  Exchange-correlation energy:                                -11.00395507912343

  Total energy:                                               -65.98643419875580

 ENERGY| Total FORCE_EVAL ( QS ) energy [a.u.]:              -65.986432285037495

 --------  Informations at step =     8 ------------
  Optimization Method        =                 BFGS
  Total Energy               =       -65.9864322850
  Internal Pressure [bar]    =      -394.6419361710
  Real energy change         =        -0.0000475574
  Predicted change in energy =        -0.0000321489
  Scaling factor             =         0.0000000000
  Step size                  =         0.0422988359
  Trust radius               =         0.4724315332
  Decrease in energy         =                  YES
  Used time                  =                4.502

  Convergence check :
  Max. step size             =         0.0422988359
  Conv. limit for step size  =         0.0030000000
  Convergence in step size   =                   NO
  RMS step size              =         0.0158959644
  Conv. limit for RMS step   =         0.0015000000
  Convergence in RMS step    =                   NO
  Max. gradient              =         0.0006120962
  Conv. limit for gradients  =         0.0000190000
  Conv. for gradients        =                   NO
  RMS gradient               =         0.0003248511
  Conv. limit for RMS grad.  =         0.0003000000
  Conv. for gradients        =                   NO
  Pressure Deviation [bar]   =      -361.7886508492
  Pressure Tolerance [bar]   =       100.0000000000
  Conv. for  PRESSURE        =                   NO
 ---------------------------------------------------

 --------------------------
 OPTIMIZATION STEP:      9
 --------------------------

 CELL| Volume [angstrom^3]:                                           209.551862
 CELL| Vector a [angstrom]:       6.648     0.000     0.000   |a| =     6.648255
 CELL| Vector b [angstrom]:       3.307     5.778     0.000   |b| =     6.657063
 CELL| Vector c [angstrom]:       3.307     1.903     5.455   |c| =     6.657112
 CELL| Angle (b,c), alpha [degree]:                                    60.342338
 CELL| Angle (a,c), beta  [degree]:                                    60.216384
 CELL| Angle (a,b), gamma [degree]:                                    60.216144
 CELL| Numerically orthorhombic:                                              NO

 Number of electrons:                                                         32
 Number of occupied orbitals:                                                 16
 Number of molecular orbitals:                                                16

 Number of orbital functions:                                                 55
 Number of independent orbital functions:                                     55

 Extrapolation method: initial_guess


 SCF WAVEFUNCTION OPTIMIZATION

  Step     Update method      Time    Convergence         Total energy    Change
  ------------------------------------------------------------------------------
     1 Broy./Diag. 0.30E+00    0.2     0.09818629       -65.9864753921 -6.60E+01
     2 Broy./Diag. 0.30E+00    0.4     0.00050399       -65.9862629466  2.12E-04
     3 Broy./Diag. 0.30E+00    0.4     0.00069894       -65.9864274000 -1.64E-04
     4 Broy./Diag. 0.30E+00    0.4     0.00011800       -65.9864779459 -5.05E-05
     5 Broy./Diag. 0.30E+00    0.4     0.00001985       -65.9864701260  7.82E-06
     6 Broy./Diag. 0.30E+00    0.4     0.00002169       -65.9864663790  3.75E-06
     7 Broy./Diag. 0.30E+00    0.4     0.00000303       -65.9864639559  2.42E-06
     8 Broy./Diag. 0.30E+00    0.4     0.00000139       -65.9864622861  1.67E-06
     9 Broy./Diag. 0.30E+00    0.4     0.00000045       -65.9864621771  1.09E-07

  *** SCF run converged in     9 steps ***


  Electronic density on regular grids:        -31.9999999022        0.0000000978
  Core density on regular grids:               31.9999994959       -0.0000005041
  Total charge density on r-space grids:       -0.0000004063
  Total charge density g-space grids:          -0.0000004063

  Overlap energy of the core charge distribution:               0.00000000000000
  Self energy of the core charge distribution:               -138.89582544120611
  Core Hamiltonian energy:                                     27.19964456524873
  Hartree energy:                                              56.71374975571557
  Exchange-correlation energy:                                -11.00403105683836

  Total energy:                                               -65.98646217708017

 ENERGY| Total FORCE_EVAL ( QS ) energy [a.u.]:              -65.986462441498375

 --------  Informations at step =     9 ------------
  Optimization Method        =                 BFGS
  Total Energy               =       -65.9864624415
  Internal Pressure [bar]    =      -379.6483511445
  Real energy change         =        -0.0000301565
  Predicted change in energy =        -0.0000229356
  Scaling factor             =         0.0000000000
  Step size                  =         0.0327383568
  Trust radius               =         0.4724315332
  Decrease in energy         =                  YES
  Used time                  =                4.805

  Convergence check :
  Max. step size             =         0.0327383568
  Conv. limit for step size  =         0.0030000000
  Convergence in step size   =                   NO
  RMS step size              =         0.0124885164
  Conv. limit for RMS step   =         0.0015000000
  Convergence in RMS step    =                   NO
  Max. gradient              =         0.0007038772
  Conv. limit for gradients  =         0.0000190000
  Conv. for gradients        =                   NO
  RMS gradient               =         0.0002869359
  Conv. limit for RMS grad.  =         0.0003000000
  Conv. in RMS gradients     =                  YES
  Pressure Deviation [bar]   =      -346.7950658227
  Pressure Tolerance [bar]   =       100.0000000000
  Conv. for  PRESSURE        =                   NO
 ---------------------------------------------------

 --------------------------
 OPTIMIZATION STEP:     10
 --------------------------

 CELL| Volume [angstrom^3]:                                           209.364535
 CELL| Vector a [angstrom]:       6.650     0.000     0.000   |a| =     6.649701
 CELL| Vector b [angstrom]:       3.307     5.775     0.000   |b| =     6.654744
 CELL| Vector c [angstrom]:       3.307     1.904     5.452   |c| =     6.654785
 CELL| Angle (b,c), alpha [degree]:                                    60.312067
 CELL| Angle (a,c), beta  [degree]:                                    60.203822
 CELL| Angle (a,b), gamma [degree]:                                    60.203624
 CELL| Numerically orthorhombic:                                              NO

 Number of electrons:                                                         32
 Number of occupied orbitals:                                                 16
 Number of molecular orbitals:                                                16

 Number of orbital functions:                                                 55
 Number of independent orbital functions:                                     55

 Extrapolation method: initial_guess


 SCF WAVEFUNCTION OPTIMIZATION

  Step     Update method      Time    Convergence         Total energy    Change
  ------------------------------------------------------------------------------
     1 Broy./Diag. 0.30E+00    0.2     0.00846671       -65.9865786663 -6.60E+01
     2 Broy./Diag. 0.30E+00    0.4     0.00044747       -65.9854072663  1.17E-03
     3 Broy./Diag. 0.30E+00    0.4     0.00042151       -65.9860727220 -6.65E-04
     4 Broy./Diag. 0.30E+00    0.4     0.00010630       -65.9864611279 -3.88E-04
     5 Broy./Diag. 0.30E+00    0.4     0.00001732       -65.9865203547 -5.92E-05
     6 Broy./Diag. 0.30E+00    0.4     0.00001092       -65.9864932942  2.71E-05
     7 Broy./Diag. 0.30E+00    0.4     0.00000494       -65.9864715664  2.17E-05
     8 Broy./Diag. 0.30E+00    0.4     0.00000029       -65.9864668148  4.75E-06

  *** SCF run converged in     8 steps ***


  Electronic density on regular grids:        -32.0000002786       -0.0000002786
  Core density on regular grids:               31.9999994999       -0.0000005001
  Total charge density on r-space grids:       -0.0000007787
  Total charge density g-space grids:          -0.0000007787

  Overlap energy of the core charge distribution:               0.00000000000000
  Self energy of the core charge distribution:               -138.89582544120611
  Core Hamiltonian energy:                                     27.20065366925600
  Hartree energy:                                              56.71320235974515
  Exchange-correlation energy:                                -11.00449740254654

  Total energy:                                               -65.98646681475151

 ENERGY| Total FORCE_EVAL ( QS ) energy [a.u.]:              -65.986470088549353

 --------  Informations at step =    10 ------------
  Optimization Method        =                 BFGS
  Total Energy               =       -65.9864700885
  Internal Pressure [bar]    =      -296.0237996855
  Real energy change         =        -0.0000076471
  Predicted change in energy =        -0.0000057892
  Scaling factor             =         0.0000000000
  Step size                  =         0.0141964792
  Trust radius               =         0.4724315332
  Decrease in energy         =                  YES
  Used time                  =                4.377

  Convergence check :
  Max. step size             =         0.0141964792
  Conv. limit for step size  =         0.0030000000
  Convergence in step size   =                   NO
  RMS step size              =         0.0052571075
  Conv. limit for RMS step   =         0.0015000000
  Convergence in RMS step    =                   NO
  Max. gradient              =         0.0006309004
  Conv. limit for gradients  =         0.0000190000
  Conv. for gradients        =                   NO
  RMS gradient               =         0.0002708046
  Conv. limit for RMS grad.  =         0.0003000000
  Conv. in RMS gradients     =                  YES
  Pressure Deviation [bar]   =      -263.1705143637
  Pressure Tolerance [bar]   =       100.0000000000
  Conv. for  PRESSURE        =                   NO
 ---------------------------------------------------

 --------------------------
 OPTIMIZATION STEP:     11
 --------------------------

 CELL| Volume [angstrom^3]:                                           209.244163
 CELL| Vector a [angstrom]:       6.649     0.000     0.000   |a| =     6.648999
 CELL| Vector b [angstrom]:       3.307     5.774     0.000   |b| =     6.653705
 CELL| Vector c [angstrom]:       3.307     1.905     5.451   |c| =     6.653744
 CELL| Angle (b,c), alpha [degree]:                                    60.302725
 CELL| Angle (a,c), beta  [degree]:                                    60.198005
 CELL| Angle (a,b), gamma [degree]:                                    60.197814
 CELL| Numerically orthorhombic:                                              NO

 Number of electrons:                                                         32
 Number of occupied orbitals:                                                 16
 Number of molecular orbitals:                                                16

 Number of orbital functions:                                                 55
 Number of independent orbital functions:                                     55

 Extrapolation method: initial_guess


 SCF WAVEFUNCTION OPTIMIZATION

  Step     Update method      Time    Convergence         Total energy    Change
  ------------------------------------------------------------------------------
     1 Broy./Diag. 0.30E+00    0.2     0.10914921       -65.9865524488 -6.60E+01
     2 Broy./Diag. 0.30E+00    0.4     0.00026522       -65.9857841729  7.68E-04
     3 Broy./Diag. 0.30E+00    0.4     0.00025416       -65.9862150730 -4.31E-04
     4 Broy./Diag. 0.30E+00    0.4     0.00006438       -65.9864766138 -2.62E-04
     5 Broy./Diag. 0.30E+00    0.4     0.00000703       -65.9865120024 -3.54E-05
     6 Broy./Diag. 0.30E+00    0.4     0.00000719       -65.9864864151  2.56E-05
     7 Broy./Diag. 0.30E+00    0.4     0.00000223       -65.9864726909  1.37E-05
     8 Broy./Diag. 0.30E+00    0.4     0.00000019       -65.9864705189  2.17E-06

  *** SCF run converged in     8 steps ***


  Electronic density on regular grids:        -32.0000002185       -0.0000002185
  Core density on regular grids:               31.9999994975       -0.0000005025
  Total charge density on r-space grids:       -0.0000007211
  Total charge density g-space grids:          -0.0000007211

  Overlap energy of the core charge distribution:               0.00000000000000
  Self energy of the core charge distribution:               -138.89582544120611
  Core Hamiltonian energy:                                     27.20133154114626
  Hartree energy:                                              56.71283502595964
  Exchange-correlation energy:                                -11.00481164476451

  Total energy:                                               -65.98647051886472

 ENERGY| Total FORCE_EVAL ( QS ) energy [a.u.]:              -65.986472574849898

 --------  Informations at step =    11 ------------
  Optimization Method        =                 BFGS
  Total Energy               =       -65.9864725748
  Internal Pressure [bar]    =      -241.2546277654
  Real energy change         =        -0.0000024863
  Predicted change in energy =        -0.0000016051
  Scaling factor             =         0.0000000000
  Step size                  =         0.0059241161
  Trust radius               =         0.4724315332
  Decrease in energy         =                  YES
  Used time                  =                4.057

  Convergence check :
  Max. step size             =         0.0059241161
  Conv. limit for step size  =         0.0030000000
  Convergence in step size   =                   NO
  RMS step size              =         0.0027831739
  Conv. limit for RMS step   =         0.0015000000
  Convergence in RMS step    =                   NO
  Max. gradient              =         0.0005531994
  Conv. limit for gradients  =         0.0000190000
  Conv. for gradients        =                   NO
  RMS gradient               =         0.0002561311
  Conv. limit for RMS grad.  =         0.0003000000
  Conv. in RMS gradients     =                  YES
  Pressure Deviation [bar]   =      -208.4013424437
  Pressure Tolerance [bar]   =       100.0000000000
  Conv. for  PRESSURE        =                   NO
 ---------------------------------------------------

 --------------------------
 OPTIMIZATION STEP:     12
 --------------------------

 CELL| Volume [angstrom^3]:                                           209.127423
 CELL| Vector a [angstrom]:       6.648     0.000     0.000   |a| =     6.648213
 CELL| Vector b [angstrom]:       3.307     5.773     0.000   |b| =     6.652769
 CELL| Vector c [angstrom]:       3.307     1.905     5.449   |c| =     6.652807
 CELL| Angle (b,c), alpha [degree]:                                    60.293767
 CELL| Angle (a,c), beta  [degree]:                                    60.191926
 CELL| Angle (a,b), gamma [degree]:                                    60.191738
 CELL| Numerically orthorhombic:                                              NO

 Number of electrons:                                                         32
 Number of occupied orbitals:                                                 16
 Number of molecular orbitals:                                                16

 Number of orbital functions:                                                 55
 Number of independent orbital functions:                                     55

 Extrapolation method: initial_guess


 SCF WAVEFUNCTION OPTIMIZATION

  Step     Update method      Time    Convergence         Total energy    Change
  ------------------------------------------------------------------------------
     1 Broy./Diag. 0.30E+00    0.2     0.00367726       -65.9865512975 -6.60E+01
     2 Broy./Diag. 0.30E+00    0.4     0.00026924       -65.9857976073  7.54E-04
     3 Broy./Diag. 0.30E+00    0.4     0.00025208       -65.9862171766 -4.20E-04
     4 Broy./Diag. 0.30E+00    0.4     0.00006142       -65.9864724595 -2.55E-04
     5 Broy./Diag. 0.30E+00    0.4     0.00000578       -65.9865102855 -3.78E-05
     6 Broy./Diag. 0.30E+00    0.4     0.00000613       -65.9864882395  2.20E-05
     7 Broy./Diag. 0.30E+00    0.4     0.00000197       -65.9864757681  1.25E-05
     8 Broy./Diag. 0.30E+00    0.4     0.00000020       -65.9864736439  2.12E-06

  *** SCF run converged in     8 steps ***


  Electronic density on regular grids:        -32.0000001953       -0.0000001953
  Core density on regular grids:               31.9999994948       -0.0000005052
  Total charge density on r-space grids:       -0.0000007004
  Total charge density g-space grids:          -0.0000007004

  Overlap energy of the core charge distribution:               0.00000000000000
  Self energy of the core charge distribution:               -138.89582544120611
  Core Hamiltonian energy:                                     27.20199349864154
  Hartree energy:                                              56.71247387700735
  Exchange-correlation energy:                                -11.00511557830576

  Total energy:                                               -65.98647364386298

 ENERGY| Total FORCE_EVAL ( QS ) energy [a.u.]:              -65.986475584103928

 --------  Informations at step =    12 ------------
  Optimization Method        =                 BFGS
  Total Energy               =       -65.9864755841
  Internal Pressure [bar]    =      -187.9027113499
  Real energy change         =        -0.0000030093
  Predicted change in energy =        -0.0000017889
  Scaling factor             =         0.0000000000
  Step size                  =         0.0052988804
  Trust radius               =         0.4724315332
  Decrease in energy         =                  YES
  Used time                  =                4.080

  Convergence check :
  Max. step size             =         0.0052988804
  Conv. limit for step size  =         0.0030000000
  Convergence in step size   =                   NO
  RMS step size              =         0.0025116189
  Conv. limit for RMS step   =         0.0015000000
  Convergence in RMS step    =                   NO
  Max. gradient              =         0.0005255734
  Conv. limit for gradients  =         0.0000190000
  Conv. for gradients        =                   NO
  RMS gradient               =         0.0002357188
  Conv. limit for RMS grad.  =         0.0003000000
  Conv. in RMS gradients     =                  YES
  Pressure Deviation [bar]   =      -155.0494260281
  Pressure Tolerance [bar]   =       100.0000000000
  Conv. for  PRESSURE        =                   NO
 ---------------------------------------------------

 --------------------------
 OPTIMIZATION STEP:     13
 --------------------------

 CELL| Volume [angstrom^3]:                                           208.942838
 CELL| Vector a [angstrom]:       6.648     0.000     0.000   |a| =     6.647641
 CELL| Vector b [angstrom]:       3.308     5.771     0.000   |b| =     6.651213
 CELL| Vector c [angstrom]:       3.308     1.906     5.447   |c| =     6.651249
 CELL| Angle (b,c), alpha [degree]:                                    60.273988
 CELL| Angle (a,c), beta  [degree]:                                    60.179866
 CELL| Angle (a,b), gamma [degree]:                                    60.179682
 CELL| Numerically orthorhombic:                                              NO

 Number of electrons:                                                         32
 Number of occupied orbitals:                                                 16
 Number of molecular orbitals:                                                16

 Number of orbital functions:                                                 55
 Number of independent orbital functions:                                     55

 Extrapolation method: initial_guess


 SCF WAVEFUNCTION OPTIMIZATION

  Step     Update method      Time    Convergence         Total energy    Change
  ------------------------------------------------------------------------------
     1 Broy./Diag. 0.30E+00    0.3     0.09095215       -65.9865862767 -6.60E+01
     2 Broy./Diag. 0.30E+00    0.4     0.00048180       -65.9854013776  1.18E-03
     3 Broy./Diag. 0.30E+00    0.4     0.00042424       -65.9860492716 -6.48E-04
     4 Broy./Diag. 0.30E+00    0.4     0.00010491       -65.9864680678 -4.19E-04
     5 Broy./Diag. 0.30E+00    0.4     0.00000952       -65.9865379082 -6.98E-05
     6 Broy./Diag. 0.30E+00    0.4     0.00001009       -65.9865015883  3.63E-05
     7 Broy./Diag. 0.30E+00    0.4     0.00000296       -65.9864817594  1.98E-05
     8 Broy./Diag. 0.30E+00    0.4     0.00000028       -65.9864787569  3.00E-06

  *** SCF run converged in     8 steps ***


  Electronic density on regular grids:        -32.0000005102       -0.0000005102
  Core density on regular grids:               31.9999994956       -0.0000005044
  Total charge density on r-space grids:       -0.0000010145
  Total charge density g-space grids:          -0.0000010145

  Overlap energy of the core charge distribution:               0.00000000000000
  Self energy of the core charge distribution:               -138.89582544120611
  Core Hamiltonian energy:                                     27.20300628904942
  Hartree energy:                                              56.71192473128077
  Exchange-correlation energy:                                -11.00558433601408

  Total energy:                                               -65.98647875688999

 ENERGY| Total FORCE_EVAL ( QS ) energy [a.u.]:              -65.986481835062733

 --------  Informations at step =    13 ------------
  Optimization Method        =                 BFGS
  Total Energy               =       -65.9864818351
  Internal Pressure [bar]    =      -103.7609230396
  Real energy change         =        -0.0000062510
  Predicted change in energy =        -0.0000040357
  Scaling factor             =         0.0000000000
  Step size                  =         0.0089514298
  Trust radius               =         0.4724315332
  Decrease in energy         =                  YES
  Used time                  =                4.084

  Convergence check :
  Max. step size             =         0.0089514298
  Conv. limit for step size  =         0.0030000000
  Convergence in step size   =                   NO
  RMS step size              =         0.0035103236
  Conv. limit for RMS step   =         0.0015000000
  Convergence in RMS step    =                   NO
  Max. gradient              =         0.0004955173
  Conv. limit for gradients  =         0.0000190000
  Conv. for gradients        =                   NO
  RMS gradient               =         0.0002007526
  Conv. limit for RMS grad.  =         0.0003000000
  Conv. in RMS gradients     =                  YES
  Pressure Deviation [bar]   =       -70.9076377179
  Pressure Tolerance [bar]   =       100.0000000000
  Conv. for  PRESSURE        =                  YES
 ---------------------------------------------------

 --------------------------
 OPTIMIZATION STEP:     14
 --------------------------

 CELL| Volume [angstrom^3]:                                           208.715278
 CELL| Vector a [angstrom]:       6.649     0.000     0.000   |a| =     6.649033
 CELL| Vector b [angstrom]:       3.309     5.767     0.000   |b| =     6.648960
 CELL| Vector c [angstrom]:       3.309     1.908     5.443   |c| =     6.648995
 CELL| Angle (b,c), alpha [degree]:                                    60.233370
 CELL| Angle (a,c), beta  [degree]:                                    60.158730
 CELL| Angle (a,b), gamma [degree]:                                    60.158550
 CELL| Numerically orthorhombic:                                              NO

 Number of electrons:                                                         32
 Number of occupied orbitals:                                                 16
 Number of molecular orbitals:                                                16

 Number of orbital functions:                                                 55
 Number of independent orbital functions:                                     55

 Extrapolation method: initial_guess


 SCF WAVEFUNCTION OPTIMIZATION

  Step     Update method      Time    Convergence         Total energy    Change
  ------------------------------------------------------------------------------
     1 Broy./Diag. 0.30E+00    0.2     0.00752530       -65.9865745686 -6.60E+01
     2 Broy./Diag. 0.30E+00    0.4     0.00075397       -65.9851390885  1.44E-03
     3 Broy./Diag. 0.30E+00    0.4     0.00064352       -65.9859603952 -8.21E-04
     4 Broy./Diag. 0.30E+00    0.4     0.00013966       -65.9864754860 -5.15E-04
     5 Broy./Diag. 0.30E+00    0.4     0.00001323       -65.9865619632 -8.65E-05
     6 Broy./Diag. 0.30E+00    0.4     0.00001197       -65.9865236543  3.83E-05
     7 Broy./Diag. 0.30E+00    0.4     0.00000563       -65.9864958777  2.78E-05
     8 Broy./Diag. 0.30E+00    0.4     0.00000042       -65.9864899634  5.91E-06

  *** SCF run converged in     8 steps ***


  Electronic density on regular grids:        -32.0000007858       -0.0000007858
  Core density on regular grids:               31.9999994987       -0.0000005013
  Total charge density on r-space grids:       -0.0000012872
  Total charge density g-space grids:          -0.0000012872

  Overlap energy of the core charge distribution:               0.00000000000000
  Self energy of the core charge distribution:               -138.89582544120611
  Core Hamiltonian energy:                                     27.20416849682353
  Hartree energy:                                              56.71129294963077
  Exchange-correlation energy:                                -11.00612596861199

  Total energy:                                               -65.98648996336378

 ENERGY| Total FORCE_EVAL ( QS ) energy [a.u.]:              -65.986493902721691

 --------  Informations at step =    14 ------------
  Optimization Method        =                 BFGS
  Total Energy               =       -65.9864939027
  Internal Pressure [bar]    =        -4.0033712682
  Real energy change         =        -0.0000120677
  Predicted change in energy =        -0.0000075690
  Scaling factor             =         0.0000000000
  Step size                  =         0.0117758075
  Trust radius               =         0.4724315332
  Decrease in energy         =                  YES
  Used time                  =                4.085

  Convergence check :
  Max. step size             =         0.0117758075
  Conv. limit for step size  =         0.0030000000
  Convergence in step size   =                   NO
  RMS step size              =         0.0052142206
  Conv. limit for RMS step   =         0.0015000000
  Convergence in RMS step    =                   NO
  Max. gradient              =         0.0004080275
  Conv. limit for gradients  =         0.0000190000
  Conv. for gradients        =                   NO
  RMS gradient               =         0.0001548582
  Conv. limit for RMS grad.  =         0.0003000000
  Conv. in RMS gradients     =                  YES
  Pressure Deviation [bar]   =        28.8499140536
  Pressure Tolerance [bar]   =       100.0000000000
  Conv. for  PRESSURE        =                  YES
 ---------------------------------------------------

 --------------------------
 OPTIMIZATION STEP:     15
 --------------------------

 CELL| Volume [angstrom^3]:                                           208.523496
 CELL| Vector a [angstrom]:       6.654     0.000     0.000   |a| =     6.654336
 CELL| Vector b [angstrom]:       3.310     5.763     0.000   |b| =     6.646425
 CELL| Vector c [angstrom]:       3.310     1.912     5.437   |c| =     6.646461
 CELL| Angle (b,c), alpha [degree]:                                    60.166974
 CELL| Angle (a,c), beta  [degree]:                                    60.128400
 CELL| Angle (a,b), gamma [degree]:                                    60.128209
 CELL| Numerically orthorhombic:                                              NO

 Number of electrons:                                                         32
 Number of occupied orbitals:                                                 16
 Number of molecular orbitals:                                                16

 Number of orbital functions:                                                 55
 Number of independent orbital functions:                                     55

 Extrapolation method: initial_guess


 SCF WAVEFUNCTION OPTIMIZATION

  Step     Update method      Time    Convergence         Total energy    Change
  ------------------------------------------------------------------------------
     1 Broy./Diag. 0.30E+00    0.2     0.11485517       -65.9865083718 -6.60E+01
     2 Broy./Diag. 0.30E+00    0.4     0.00097624       -65.9853258746  1.18E-03
     3 Broy./Diag. 0.30E+00    0.4     0.00094899       -65.9861199284 -7.94E-04
     4 Broy./Diag. 0.30E+00    0.4     0.00015795       -65.9865263640 -4.06E-04
     5 Broy./Diag. 0.30E+00    0.4     0.00003496       -65.9865681402 -4.18E-05
     6 Broy./Diag. 0.30E+00    0.4     0.00002049       -65.9865395737  2.86E-05
     7 Broy./Diag. 0.30E+00    0.4     0.00000621       -65.9865149022  2.47E-05
     8 Broy./Diag. 0.30E+00    0.4     0.00000091       -65.9865079521  6.95E-06

  *** SCF run converged in     8 steps ***


  Electronic density on regular grids:        -32.0000002383       -0.0000002383
  Core density on regular grids:               31.9999994973       -0.0000005027
  Total charge density on r-space grids:       -0.0000007410
  Total charge density g-space grids:          -0.0000007410

  Overlap energy of the core charge distribution:               0.00000000000000
  Self energy of the core charge distribution:               -138.89582544120611
  Core Hamiltonian energy:                                     27.20503390235366
  Hartree energy:                                              56.71081190095073
  Exchange-correlation energy:                                -11.00652831423224

  Total energy:                                               -65.98650795213396

 ENERGY| Total FORCE_EVAL ( QS ) energy [a.u.]:              -65.986511496888852

 --------  Informations at step =    15 ------------
  Optimization Method        =                 BFGS
  Total Energy               =       -65.9865114969
  Internal Pressure [bar]    =        73.7892724797
  Real energy change         =        -0.0000175942
  Predicted change in energy =        -0.0000118637
  Scaling factor             =         0.0000000000
  Step size                  =         0.0284451402
  Trust radius               =         0.4724315332
  Decrease in energy         =                  YES
  Used time                  =                4.058

  Convergence check :
  Max. step size             =         0.0284451402
  Conv. limit for step size  =         0.0030000000
  Convergence in step size   =                   NO
  RMS step size              =         0.0105023478
  Conv. limit for RMS step   =         0.0015000000
  Convergence in RMS step    =                   NO
  Max. gradient              =         0.0002405662
  Conv. limit for gradients  =         0.0000190000
[...]

  Total energy:                                               -65.98652699094789

 ENERGY| Total FORCE_EVAL ( QS ) energy [a.u.]:              -65.986525898805453

 --------  Informations at step =    31 ------------
  Optimization Method        =                 BFGS
  Total Energy               =       -65.9865258988
  Internal Pressure [bar]    =         8.6975270727
  Real energy change         =        -0.0000001504
  Predicted change in energy =        -0.0000001436
  Scaling factor             =         0.0000000000
  Step size                  =         0.0033288884
  Trust radius               =         0.4724315332
  Decrease in energy         =                  YES
  Used time                  =                4.103

  Convergence check :
  Max. step size             =         0.0033288884
  Conv. limit for step size  =         0.0030000000
  Convergence in step size   =                   NO
  RMS step size              =         0.0014695943
  Conv. limit for RMS step   =         0.0015000000
  Convergence in RMS step    =                  YES
  Max. gradient              =         0.0000375274
  Conv. limit for gradients  =         0.0000190000
  Conv. for gradients        =                   NO
  RMS gradient               =         0.0000178493
  Conv. limit for RMS grad.  =         0.0003000000
  Conv. in RMS gradients     =                  YES
  Pressure Deviation [bar]   =        41.5508123945
  Pressure Tolerance [bar]   =       100.0000000000
  Conv. for  PRESSURE        =                  YES
 ---------------------------------------------------

 --------------------------
 OPTIMIZATION STEP:     32
 --------------------------

 CELL| Volume [angstrom^3]:                                           208.669591
 CELL| Vector a [angstrom]:       6.655     0.000     0.000   |a| =     6.655235
 CELL| Vector b [angstrom]:       3.325     5.766     0.000   |b| =     6.655886
 CELL| Vector c [angstrom]:       3.325     1.918     5.438   |c| =     6.655873
 CELL| Angle (b,c), alpha [degree]:                                    60.056516
 CELL| Angle (a,c), beta  [degree]:                                    60.032717
 CELL| Angle (a,b), gamma [degree]:                                    60.032697
 CELL| Numerically orthorhombic:                                              NO

 Number of electrons:                                                         32
 Number of occupied orbitals:                                                 16
 Number of molecular orbitals:                                                16

 Number of orbital functions:                                                 55
 Number of independent orbital functions:                                     55

 Extrapolation method: initial_guess


 SCF WAVEFUNCTION OPTIMIZATION

  Step     Update method      Time    Convergence         Total energy    Change
  ------------------------------------------------------------------------------
     1 Broy./Diag. 0.30E+00    0.2     0.00067995       -65.9865174258 -6.60E+01
     2 Broy./Diag. 0.30E+00    0.4     0.00004759       -65.9866252905 -1.08E-04
     3 Broy./Diag. 0.30E+00    0.4     0.00005220       -65.9865563172  6.90E-05
     4 Broy./Diag. 0.30E+00    0.4     0.00001323       -65.9865256698  3.06E-05
     5 Broy./Diag. 0.30E+00    0.4     0.00000315       -65.9865223151  3.35E-06
     6 Broy./Diag. 0.30E+00    0.4     0.00000199       -65.9865237062 -1.39E-06
     7 Broy./Diag. 0.30E+00    0.4     0.00000058       -65.9865257165 -2.01E-06

  *** SCF run converged in     7 steps ***


  Electronic density on regular grids:        -31.9999997060        0.0000002940
  Core density on regular grids:               31.9999994994       -0.0000005006
  Total charge density on r-space grids:       -0.0000002066
  Total charge density g-space grids:          -0.0000002066

  Overlap energy of the core charge distribution:               0.00000000000000
  Self energy of the core charge distribution:               -138.89582544120611
  Core Hamiltonian energy:                                     27.20410445202642
  Hartree energy:                                              56.71129685549849
  Exchange-correlation energy:                                -11.00610158281307

  Total energy:                                               -65.98652571649427

 ENERGY| Total FORCE_EVAL ( QS ) energy [a.u.]:              -65.986525963425464

 --------  Informations at step =    32 ------------
  Optimization Method        =                 BFGS
  Total Energy               =       -65.9865259634
  Internal Pressure [bar]    =         1.1248262791
  Real energy change         =        -0.0000000646
  Predicted change in energy =        -0.0000000626
  Scaling factor             =         0.0000000000
  Step size                  =         0.0022579006
  Trust radius               =         0.4724315332
  Decrease in energy         =                  YES
  Used time                  =                3.702

  Convergence check :
  Max. step size             =         0.0022579006
  Conv. limit for step size  =         0.0030000000
  Convergence in step size   =                  YES
  RMS step size              =         0.0009670880
  Conv. limit for RMS step   =         0.0015000000
  Convergence in RMS step    =                  YES
  Max. gradient              =         0.0000435165
  Conv. limit for gradients  =         0.0000190000
  Conv. for gradients        =                   NO
  RMS gradient               =         0.0000167925
  Conv. limit for RMS grad.  =         0.0003000000
  Conv. in RMS gradients     =                  YES
  Pressure Deviation [bar]   =        33.9781116009
  Pressure Tolerance [bar]   =       100.0000000000
  Conv. for  PRESSURE        =                  YES
 ---------------------------------------------------

 --------------------------
 OPTIMIZATION STEP:     33
 --------------------------

 CELL| Volume [angstrom^3]:                                           208.663807
 CELL| Vector a [angstrom]:       6.655     0.000     0.000   |a| =     6.654880
 CELL| Vector b [angstrom]:       3.325     5.766     0.000   |b| =     6.656075
 CELL| Vector c [angstrom]:       3.325     1.918     5.438   |c| =     6.656059
 CELL| Angle (b,c), alpha [degree]:                                    60.055826
 CELL| Angle (a,c), beta  [degree]:                                    60.031027
 CELL| Angle (a,b), gamma [degree]:                                    60.031013
 CELL| Numerically orthorhombic:                                              NO

 Number of electrons:                                                         32
 Number of occupied orbitals:                                                 16
 Number of molecular orbitals:                                                16

 Number of orbital functions:                                                 55
 Number of independent orbital functions:                                     55

 Extrapolation method: initial_guess


 SCF WAVEFUNCTION OPTIMIZATION

  Step     Update method      Time    Convergence         Total energy    Change
  ------------------------------------------------------------------------------
     1 Broy./Diag. 0.30E+00    0.3     0.00029473       -65.9865287785 -6.60E+01
     2 Broy./Diag. 0.30E+00    0.4     0.00001461       -65.9864926049  3.62E-05
     3 Broy./Diag. 0.30E+00    0.4     0.00001498       -65.9865152017 -2.26E-05
     4 Broy./Diag. 0.30E+00    0.4     0.00000396       -65.9865253151 -1.01E-05
     5 Broy./Diag. 0.30E+00    0.4     0.00000059       -65.9865267896 -1.47E-06

  *** SCF run converged in     5 steps ***


  Electronic density on regular grids:        -32.0000000261       -0.0000000261
  Core density on regular grids:               31.9999994991       -0.0000005009
  Total charge density on r-space grids:       -0.0000005270
  Total charge density g-space grids:          -0.0000005270

  Overlap energy of the core charge distribution:               0.00000000000000
  Self energy of the core charge distribution:               -138.89582544120611
  Core Hamiltonian energy:                                     27.20413495721846
  Hartree energy:                                              56.71127985540249
  Exchange-correlation energy:                                -11.00611616098835

  Total energy:                                               -65.98652678957350

 ENERGY| Total FORCE_EVAL ( QS ) energy [a.u.]:              -65.986525982907466

 --------  Informations at step =    33 ------------
  Optimization Method        =                 BFGS
  Total Energy               =       -65.9865259829
  Internal Pressure [bar]    =         3.6549275130
  Real energy change         =        -0.0000000195
  Predicted change in energy =        -0.0000000117
  Scaling factor             =         0.0000000000
  Step size                  =         0.0006719377
  Trust radius               =         0.4724315332
  Decrease in energy         =                  YES
  Used time                  =                2.965

  Convergence check :
  Max. step size             =         0.0006719377
  Conv. limit for step size  =         0.0030000000
  Convergence in step size   =                  YES
  RMS step size              =         0.0002829076
  Conv. limit for RMS step   =         0.0015000000
  Convergence in RMS step    =                  YES
  Max. gradient              =         0.0000392054
  Conv. limit for gradients  =         0.0000190000
  Conv. for gradients        =                   NO
  RMS gradient               =         0.0000158728
  Conv. limit for RMS grad.  =         0.0003000000
  Conv. in RMS gradients     =                  YES
  Pressure Deviation [bar]   =        36.5082128348
  Pressure Tolerance [bar]   =       100.0000000000
  Conv. for  PRESSURE        =                  YES
 ---------------------------------------------------

 --------------------------
 OPTIMIZATION STEP:     34
 --------------------------

 CELL| Volume [angstrom^3]:                                           208.659103
 CELL| Vector a [angstrom]:       6.655     0.000     0.000   |a| =     6.654754
 CELL| Vector b [angstrom]:       3.325     5.766     0.000   |b| =     6.656088
 CELL| Vector c [angstrom]:       3.325     1.918     5.438   |c| =     6.656072
 CELL| Angle (b,c), alpha [degree]:                                    60.055689
 CELL| Angle (a,c), beta  [degree]:                                    60.030604
 CELL| Angle (a,b), gamma [degree]:                                    60.030592
 CELL| Numerically orthorhombic:                                              NO

 Number of electrons:                                                         32
 Number of occupied orbitals:                                                 16
 Number of molecular orbitals:                                                16

 Number of orbital functions:                                                 55
 Number of independent orbital functions:                                     55

 Extrapolation method: initial_guess


 SCF WAVEFUNCTION OPTIMIZATION

  Step     Update method      Time    Convergence         Total energy    Change
  ------------------------------------------------------------------------------
     1 Broy./Diag. 0.30E+00    0.2     0.00018532       -65.9865282592 -6.60E+01
     2 Broy./Diag. 0.30E+00    0.4     0.00001064       -65.9864986309  2.96E-05
     3 Broy./Diag. 0.30E+00    0.4     0.00000980       -65.9865157259 -1.71E-05
     4 Broy./Diag. 0.30E+00    0.4     0.00000216       -65.9865252469 -9.52E-06
     5 Broy./Diag. 0.30E+00    0.4     0.00000022       -65.9865268912 -1.64E-06

  *** SCF run converged in     5 steps ***


  Electronic density on regular grids:        -32.0000000414       -0.0000000414
  Core density on regular grids:               31.9999994994       -0.0000005006
  Total charge density on r-space grids:       -0.0000005420
  Total charge density g-space grids:          -0.0000005420

  Overlap energy of the core charge distribution:               0.00000000000000
  Self energy of the core charge distribution:               -138.89582544120611
  Core Hamiltonian energy:                                     27.20416006463621
  Hartree energy:                                              56.71126644165906
  Exchange-correlation energy:                                -11.00612795631523

  Total energy:                                               -65.98652689122608

 ENERGY| Total FORCE_EVAL ( QS ) energy [a.u.]:              -65.986525993901409

 --------  Informations at step =    34 ------------
  Optimization Method        =                 BFGS
  Total Energy               =       -65.9865259939
  Internal Pressure [bar]    =         5.7344057494
  Real energy change         =        -0.0000000110
  Predicted change in energy =        -0.0000000044
  Scaling factor             =         0.0000000000
  Step size                  =         0.0002382695
  Trust radius               =         0.4724315332
  Decrease in energy         =                  YES
  Used time                  =                2.953

  Convergence check :
  Max. step size             =         0.0002382695
  Conv. limit for step size  =         0.0030000000
  Convergence in step size   =                  YES
  RMS step size              =         0.0001049609
  Conv. limit for RMS step   =         0.0015000000
  Convergence in RMS step    =                  YES
  Max. gradient              =         0.0000353536
  Conv. limit for gradients  =         0.0000190000
  Conv. for gradients        =                   NO
  RMS gradient               =         0.0000153245
  Conv. limit for RMS grad.  =         0.0003000000
  Conv. in RMS gradients     =                  YES
  Pressure Deviation [bar]   =        38.5876910711
  Pressure Tolerance [bar]   =       100.0000000000
  Conv. for  PRESSURE        =                  YES
 ---------------------------------------------------

 --------------------------
 OPTIMIZATION STEP:     35
 --------------------------

 CELL| Volume [angstrom^3]:                                           208.653022
 CELL| Vector a [angstrom]:       6.655     0.000     0.000   |a| =     6.654609
 CELL| Vector b [angstrom]:       3.325     5.766     0.000   |b| =     6.656131
 CELL| Vector c [angstrom]:       3.325     1.918     5.438   |c| =     6.656115
 CELL| Angle (b,c), alpha [degree]:                                    60.054921
 CELL| Angle (a,c), beta  [degree]:                                    60.029633
 CELL| Angle (a,b), gamma [degree]:                                    60.029623
 CELL| Numerically orthorhombic:                                              NO

 Number of electrons:                                                         32
 Number of occupied orbitals:                                                 16
 Number of molecular orbitals:                                                16

 Number of orbital functions:                                                 55
 Number of independent orbital functions:                                     55

 Extrapolation method: initial_guess


 SCF WAVEFUNCTION OPTIMIZATION

  Step     Update method      Time    Convergence         Total energy    Change
  ------------------------------------------------------------------------------
     1 Broy./Diag. 0.30E+00    0.2     0.00034774       -65.9865289076 -6.60E+01
     2 Broy./Diag. 0.30E+00    0.4     0.00001435       -65.9864906743  3.82E-05
     3 Broy./Diag. 0.30E+00    0.4     0.00001381       -65.9865132938 -2.26E-05
     4 Broy./Diag. 0.30E+00    0.4     0.00000293       -65.9865256564 -1.24E-05
     5 Broy./Diag. 0.30E+00    0.4     0.00000052       -65.9865275082 -1.85E-06

  *** SCF run converged in     5 steps ***


  Electronic density on regular grids:        -32.0000007663       -0.0000007663
  Core density on regular grids:               31.9999994998       -0.0000005002
  Total charge density on r-space grids:       -0.0000012665
  Total charge density g-space grids:          -0.0000012665

  Overlap energy of the core charge distribution:               0.00000000000000
  Self energy of the core charge distribution:               -138.89582544120611
  Core Hamiltonian energy:                                     27.20419245179604
  Hartree energy:                                              56.71124886249731
  Exchange-correlation energy:                                -11.00614338133050

  Total energy:                                               -65.98652750824326

 ENERGY| Total FORCE_EVAL ( QS ) energy [a.u.]:              -65.986526018060928

 --------  Informations at step =    35 ------------
  Optimization Method        =                 BFGS
  Total Energy               =       -65.9865260181
  Internal Pressure [bar]    =         8.3991555626
  Real energy change         =        -0.0000000242
  Predicted change in energy =        -0.0000000121
  Scaling factor             =         0.0000000000
  Step size                  =         0.0004383729
  Trust radius               =         0.4724315332
  Decrease in energy         =                  YES
  Used time                  =                2.898

  Convergence check :
  Max. step size             =         0.0004383729
  Conv. limit for step size  =         0.0030000000
  Convergence in step size   =                  YES
  RMS step size              =         0.0001879994
  Conv. limit for RMS step   =         0.0015000000
  Convergence in RMS step    =                  YES
  Max. gradient              =         0.0000348038
  Conv. limit for gradients  =         0.0000190000
  Conv. for gradients        =                   NO
  RMS gradient               =         0.0000144114
  Conv. limit for RMS grad.  =         0.0003000000
  Conv. in RMS gradients     =                  YES
  Pressure Deviation [bar]   =        41.2524408844
  Pressure Tolerance [bar]   =       100.0000000000
  Conv. for  PRESSURE        =                  YES
 ---------------------------------------------------

 --------------------------
 OPTIMIZATION STEP:     36
 --------------------------

 CELL| Volume [angstrom^3]:                                           208.652048
 CELL| Vector a [angstrom]:       6.655     0.000     0.000   |a| =     6.654582
 CELL| Vector b [angstrom]:       3.325     5.766     0.000   |b| =     6.656306
 CELL| Vector c [angstrom]:       3.325     1.918     5.438   |c| =     6.656290
 CELL| Angle (b,c), alpha [degree]:                                    60.052326
 CELL| Angle (a,c), beta  [degree]:                                    60.027407
 CELL| Angle (a,b), gamma [degree]:                                    60.027397
 CELL| Numerically orthorhombic:                                              NO

 Number of electrons:                                                         32
 Number of occupied orbitals:                                                 16
 Number of molecular orbitals:                                                16

 Number of orbital functions:                                                 55
 Number of independent orbital functions:                                     55

 Extrapolation method: initial_guess


 SCF WAVEFUNCTION OPTIMIZATION

  Step     Update method      Time    Convergence         Total energy    Change
  ------------------------------------------------------------------------------
     1 Broy./Diag. 0.30E+00    0.2     0.00048576       -65.9865263778 -6.60E+01
     2 Broy./Diag. 0.30E+00    0.4     0.00001097       -65.9865200048  6.37E-06
srun: Job step aborted: Waiting up to 32 seconds for job step to finish.
slurmstepd: error: *** STEP 23804655.0 ON mpcl003 CANCELLED AT 2021-06-03T15:10:59 DUE TO TIME LIMIT ***
     3 Broy./Diag. 0.30E+00    0.4     0.00001560       -65.9865243923 -4.39E-06
