      16
 i =        1, E =      -130.9546012147
 Te         5.9462934047       10.4906541913        8.3548104885
 Te         1.1427781378        0.5768704345        3.2575958739
 Te         5.9462934065        0.5768704345        1.8396179058
 Te         1.1427781372       10.4906541912        6.9368325194
 Te         3.5445357722        8.8548087777        2.5486068898
 Te         3.5445357722        2.2127158459        7.6458215038
 Te         1.7876545043        3.7753739398        6.2052935034
 Te         5.3014170416        7.2921506886        1.1080788894
 Te         1.7876545028        7.2921506888        3.9891348898
 Te         5.3014170420        3.7753739361        9.0863495036
 Te         2.4032301242        8.3682213556        8.3439408840
 Te         4.6858414195        2.6993032698        3.2467262719
 Te         2.4032301248        2.6993032700        1.8504875076
 Te         4.6858414194        8.3682213560        6.9477021208
 Te        -0.0000002384        5.7726887732        2.5486068898
 Te        -0.0000002384        5.2948358504        7.6458215038
      16
 i =        2, E =      -130.9547205043
 Te         5.9470615114       10.4926757035        8.3585371649
 Te         1.1455827189        0.5754909714        3.2610549957
 Te         5.9470615123        0.5754909714        1.8364263395
 Te         1.1455827189       10.4926757035        6.9339085093
 Te         3.5463221156        8.8599028564        2.5487406677
 Te         3.5463221156        2.2082638183        7.6462228375
 Te         1.7886801470        3.7755817804        6.2015341516
 Te         5.3039640846        7.2925848952        1.1040519819
 Te         1.7886801466        7.2925848953        3.9934293534
 Te         5.3039640846        3.7755817797        9.0909115233
 Te         2.4027011441        8.3669632728        8.3471019381
 Te         4.6899430872        2.7012034018        3.2496197689
 Te         2.4027011439        2.7012034018        1.8478615664
 Te         4.6899430873        8.3669632731        6.9453437362
 Te        -0.0000002386        5.7688479851        2.5487406677
 Te        -0.0000002386        5.2993186897        7.6462228375
      16
 i =        3, E =      -130.9547786974
 Te         5.9347796185       10.4869868436        8.3519904759
 Te         1.1432461394        0.5740989234        3.2596186632
 Te         5.9347796193        0.5740989235        1.8327523172
 Te         1.1432461394       10.4869868433        6.9251241313
 Te         3.5390128793        8.8636307989        2.5461854902
 Te         3.5390128793        2.1974549679        7.6385573042
 Te         1.7852693976        3.7733128426        6.1886930025
 Te         5.2927563611        7.2877729238        1.0963211883
 Te         1.7852693976        7.2877729238        3.9960497921
 Te         5.2927563610        3.7733128431        9.0884216061
 Te         2.3992158636        8.3596782709        8.3383713353
 Te         4.6788098955        2.7014074959        3.2459995218
 Te         2.3992158632        2.7014074959        1.8463714586
 Te         4.6788098955        8.3596782709        6.9387432727
 Te        -0.0000002381        5.7580414395        2.5461854902
 Te        -0.0000002381        5.3030443272        7.6385573042
      16
 i =        4, E =      -130.9548804544
 Te         5.8985864862       10.4647979198        8.3309902535
 Te         1.1410372913        0.5703850509        3.2554652650
 Te         5.8985864864        0.5703850509        1.8200588941
 Te         1.1410372915       10.4647979192        6.8955838840
 Te         3.5198118889        8.8568351607        2.5377620795
 Te         3.5198118889        2.1783478094        7.6132870694
 Te         1.7768653463        3.7640584271        6.1612349772
 Te         5.2627584314        7.2711245425        1.0857099870
 Te         1.7768653463        7.2711245426        3.9898141720
 Te         5.2627584314        3.7640584274        9.0653391619
 Te         2.3767504600        8.3350643212        8.3169163677
 Te         4.6628733178        2.7001186489        3.2413913780
 Te         2.3767504600        2.7001186489        1.8341327810
 Te         4.6628733177        8.3350643213        6.9096577710
 Te        -0.0000002368        5.7359891164        2.5377620795
 Te        -0.0000002368        5.2991938537        7.6132870694
      16
 i =        5, E =      -130.9548972635
 Te         5.8918636311       10.4606742128        8.3258659466
 Te         1.1430779539        0.5697056907        3.2546451791
 Te         5.8918636311        0.5697056907        1.8165747585
 Te         1.1430779538       10.4606742125        6.8877955264
 Te         3.5174707925        8.8537966931        2.5356099688
 Te         3.5174707925        2.1765832101        7.6068307367
 Te         1.7762262223        3.7618279944        6.1560907632
 Te         5.2587153627        7.2685519090        1.0848699950
 Te         1.7762262223        7.2685519090        3.9863499427
 Te         5.2587153627        3.7618279942        9.0575707106
 Te         2.3753791037        8.3304004717        8.3090673120
 Te         4.6595624811        2.6999794314        3.2378465439
 Te         2.3753791039        2.6999794314        1.8333733938
 Te         4.6595624811        8.3304004719        6.9045941617
 Te        -0.0000002366        5.7334925650        2.5356099688
 Te        -0.0000002366        5.2968873382        7.6068307367
      16
 i =        6, E =      -130.9549268155
 Te         5.9020692329       10.4580840513        8.2996724661
 Te         1.1452101671        0.5664183718        3.2447947037
 Te         5.9020692338        0.5664183718        1.8100822330
 Te         1.1452101669       10.4580840499        6.8649599967
 Te         3.5236397005        8.8523927297        2.5274384683
 Te         3.5236397005        2.1721096922        7.5823162324
 Te         1.7801219734        3.7576805948        6.1354540364
 Te         5.2671574276        7.2668218288        1.0805762711
 Te         1.7801219734        7.2668218287        3.9743006654
 Te         5.2671574276        3.7576805928        9.0291784296
 Te         2.3766532529        8.3202523480        8.2803979627
 Te         4.6706261459        2.7042500739        3.2255201988
 Te         2.3766532549        2.7042500739        1.8293567378
 Te         4.6706261454        8.3202523479        6.8842345016
 Te        -0.0000002370        5.7332974114        2.5274384683
 Te        -0.0000002370        5.2912050105        7.5823162324
      16
 i =        7, E =      -130.9549371041
 Te         5.9024822606       10.4576268586        8.2980382810
 Te         1.1439329604        0.5668745634        3.2437812673
 Te         5.9024822608        0.5668745634        1.8104749197
 Te         1.1439329604       10.4576268582        6.8647319341
 Te         3.5232076106        8.8526429461        2.5271280935
 Te         3.5232076106        2.1718584755        7.5813851080
 Te         1.7798808596        3.7575778226        6.1341645259
 Te         5.2665343616        7.2669235996        1.0799075111
 Te         1.7798808596        7.2669235996        3.9743486759
 Te         5.2665343616        3.7575778220        9.0286056903
 Te         2.3778824449        8.3204140018        8.2784510019
 Te         4.6685327753        2.7040874199        3.2241939877
 Te         2.3778824459        2.7040874199        1.8300621993
 Te         4.6685327753        8.3204140018        6.8843192137
 Te        -0.0000002370        5.7331477321        2.5271280935
 Te        -0.0000002370        5.2913536895        7.5813851080
      16
 i =        8, E =      -130.9549411712
 Te         5.9062113453       10.4573776321        8.2963746934
 Te         1.1432035280        0.5677486163        3.2434523889
 Te         5.9062113451        0.5677486163        1.8094690890
 Te         1.1432035280       10.4573776320        6.8623913941
 Te         3.5247074365        8.8536250898        2.5264607389
 Te         3.5247074365        2.1715011585        7.5793830440
 Te         1.7805458292        3.7574435257        6.1310076556
 Te         5.2688690439        7.2676827230        1.0780853499
 Te         1.7805458292        7.2676827230        3.9748361280
 Te         5.2688690439        3.7574435253        9.0277584331
 Te         2.3795428831        8.3205454840        8.2769093677
 Te         4.6698719891        2.7045807642        3.2239870627
 Te         2.3795428840        2.7045807642        1.8289344151
 Te         4.6698719891        8.3205454841        6.8818567203
 Te        -0.0000002371        5.7333678701        2.5264607389
 Te        -0.0000002371        5.2917583782        7.5793830440
      16
 i =        9, E =      -130.9549507863
 Te         5.9150341218       10.4512463462        8.2859759089
 Te         1.1429293335        0.5726889339        3.2410046633
 Te         5.9150341211        0.5726889339        1.8039657562
 Te         1.1429293334       10.4512463467        6.8489370017
 Te         3.5289817273        8.8506522925        2.5224852097
 Te         3.5289817273        2.1732829880        7.5674564550
 Te         1.7823250539        3.7556414398        6.1197714721
 Te         5.2756384008        7.2682938413        1.0748002258
 Te         1.7823250537        7.2682938412        3.9701701935
 Te         5.2756384008        3.7556414393        9.0151414388
 Te         2.3845537350        8.3191782036        8.2656751599
 Te         4.6734097184        2.7047570770        3.2207039143
 Te         2.3845537360        2.7047570770        1.8242665051
 Te         4.6734097187        8.3191782035        6.8692377505
 Te        -0.0000002374        5.7372459891        2.5224852097
 Te        -0.0000002374        5.2866892914        7.5674564550
      16
 i =       10, E =      -130.9549518633
 Te         5.9163954596       10.4502306309        8.2822970411
 Te         1.1422559246        0.5735882099        3.2393066355
 Te         5.9163954592        0.5735882099        1.8036829433
 Te         1.1422559246       10.4502306314        6.8466733476
 Te         3.5293256919        8.8509220115        2.5214947893
 Te         3.5293256919        2.1728968299        7.5644851936
 Te         1.7827233767        3.7552714919        6.1173976346
 Te         5.2759280073        7.2685473496        1.0744072300
 Te         1.7827233764        7.2685473496        3.9685823486
 Te         5.2759280073        3.7552714917        9.0115727529
 Te         2.3847644666        8.3187095224        8.2628649122
 Te         4.6738869170        2.7051093190        3.2198745075
 Te         2.3847644668        2.7051093190        1.8231150712
 Te         4.6738869170        8.3187095223        6.8661054755
 Te        -0.0000002374        5.7376220241        2.5214947893
 Te        -0.0000002374        5.2861968172        7.5644851936
      16
 i =       11, E =      -130.9549549261
 Te         5.9181024763       10.4492983704        8.2706401462
 Te         1.1434478488        0.5755887079        3.2344377014
 Te         5.9181024749        0.5755887080        1.8017639122
 Te         1.1434478490       10.4492983711        6.8379663522
 Te         3.5307751618        8.8558755825        2.5181008069
 Te         3.5307751618        2.1690114965        7.5543032453
 Te         1.7848683935        3.7545292552        6.1092670516
 Te         5.2766819306        7.2703578251        1.0730646120
 Te         1.7848683931        7.2703578250        3.9631370018
 Te         5.2766819307        3.7545292537        8.9993394405
 Te         2.3862192497        8.3164031957        8.2534513467
 Te         4.6753310742        2.7084838835        3.2172489073
 Te         2.3862192494        2.7084838835        1.8189527065
 Te         4.6753310744        8.3164031955        6.8551551450
 Te        -0.0000002375        5.7378336208        2.5181008069
 Te        -0.0000002375        5.2870534583        7.5543032453
      16
 i =       12, E =      -130.9549557628
 Te         5.9169513108       10.4489297478        8.2703136954
 Te         1.1435489031        0.5756483412        3.2342669791
 Te         5.9169513103        0.5756483412        1.8017789103
 Te         1.1435489031       10.4489297479        6.8378256241
 Te         3.5302501067        8.8555964433        2.5180229447
 Te         3.5302501067        2.1689816458        7.5540696585
 Te         1.7843904273        3.7545790577        6.1091608935
 Te         5.2761097862        7.2699990320        1.0731141792
 Te         1.7843904272        7.2699990320        3.9629317101
 Te         5.2761097862        3.7545790571        8.9989784240
 Te         2.3863037550        8.3160255289        8.2529875825
 Te         4.6741964585        2.7085525603        3.2169408684
 Te         2.3863037550        2.7085525603        1.8191050209
 Te         4.6741964584        8.3160255289        6.8551517347
 Te        -0.0000002375        5.7381155564        2.5180229447
 Te        -0.0000002375        5.2864625327        7.5540696585
      16
 i =       13, E =      -130.9549560486
 Te         5.9147768064       10.4483996659        8.2699058911
 Te         1.1440838457        0.5756939005        3.2340274027
 Te         5.9147768060        0.5756939005        1.8018502590
 Te         1.1440838457       10.4483996662        6.8377287452
 Te         3.5294303259        8.8553128879        2.5179388309
 Te         3.5294303259        2.1687806788        7.5538173171
 Te         1.7836448897        3.7544773626        6.1086033390
 Te         5.2752157620        7.2696162046        1.0727248523
 Te         1.7836448898        7.2696162045        3.9631528095
 Te         5.2752157619        3.7544773622        8.9990312957
 Te         2.3855205043        8.3148301470        8.2533940476
 Te         4.6733401472        2.7092634199        3.2175155610
 Te         2.3855205045        2.7092634199        1.8183621008
 Te         4.6733401472        8.3148301468        6.8542405870
 Te        -0.0000002374        5.7383479716        2.5179388309
 Te        -0.0000002374        5.2857455951        7.5538173171
      16
 i =       14, E =      -130.9549561884
 Te         5.9097469602       10.4469733860        8.2675185272
 Te         1.1445744101        0.5762241026        3.2322320028
 Te         5.9097469598        0.5762241026        1.8030536950
 Te         1.1445744101       10.4469733864        6.8383402173
 Te         3.5271606850        8.8549746644        2.5176428490
 Te         3.5271606850        2.1682228246        7.5529293714
 Te         1.7824825733        3.7533965064        6.1063435317
 Te         5.2718387962        7.2698009827        1.0710570089
 Te         1.7824825737        7.2698009826        3.9642286891
 Te         5.2718387962        3.7533965065        8.9995152114
 Te         2.3838261703        8.3122399176        8.2535860948
 Te         4.6704951996        2.7109575715        3.2182995721
 Te         2.3838261703        2.7109575714        1.8169861259
 Te         4.6704951996        8.3122399176        6.8522726483
 Te        -0.0000002373        5.7375069536        2.5176428490
 Te        -0.0000002373        5.2856905355        7.5529293714
      16
 i =       15, E =      -130.9549558037
 Te         5.9089775590       10.4469886809        8.2669592864
 Te         1.1450879815        0.5764673555        3.2318757577
 Te         5.9089775586        0.5764673555        1.8032069444
 Te         1.1450879814       10.4469886815        6.8382904707
 Te         3.5270327700        8.8556323310        2.5175413511
 Te         3.5270327700        2.1678237061        7.5526248776
 Te         1.7823924459        3.7533190696        6.1058085710
 Te         5.2716730933        7.2701369669        1.0707250440
 Te         1.7823924467        7.2701369669        3.9643576582
 Te         5.2716730934        3.7533190702        8.9994411846
 Te         2.3839738941        8.3119664946        8.2534057144
 Te         4.6700916461        2.7114895424        3.2183221875
 Te         2.3839738940        2.7114895424        1.8167605147
 Te         4.6700916461        8.3119664946        6.8518440412
 Te        -0.0000002373        5.7374860149        2.5175413511
 Te        -0.0000002373        5.2859700222        7.5526248776
