 DBCSR| CPU Multiplication driver                                           XSMM
 DBCSR| Multrec recursion limit                                              512
 DBCSR| Multiplication stack size                                           1000
 DBCSR| Maximum elements for images                                    UNLIMITED
 DBCSR| Multiplicative factor virtual images                                   1
 DBCSR| Use multiplication densification                                       T
 DBCSR| Multiplication size stacks                                             3
 DBCSR| Use memory pool for CPU allocation                                     F
 DBCSR| Number of 3D layers                                               SINGLE
 DBCSR| Use MPI memory allocation                                              F
 DBCSR| Use RMA algorithm                                                      F
 DBCSR| Use Communication thread                                               T
 DBCSR| Communication thread load                                             83
 DBCSR| MPI: My node id                                                        0
 DBCSR| MPI: Number of nodes                                                  12
 DBCSR| OMP: Current number of threads                                         2
 DBCSR| OMP: Max number of threads                                             2
 DBCSR| Split modifier for TAS multiplication algorithm                  1.0E+00


  **** **** ******  **  PROGRAM STARTED AT               2021-06-04 07:43:14.046
 ***** ** ***  *** **   PROGRAM STARTED ON                               mpcl036
 **    ****   ******    PROGRAM STARTED BY                              pubo1141
 ***** **    ** ** **   PROGRAM PROCESS ID                                  4026
  **** **  *******  **  PROGRAM STARTED IN /user/pubo1141/simulations/aiida_test
                                           s/cp2k_8.2/eigenvalues_changing_chara
                                           cter_medium

 CP2K| version string:                                          CP2K version 8.2
 CP2K| source code revision number:                                  git:310b7ab
 CP2K| cp2kflags: omp libint fftw3 libxc parallel mpi3 scalapack xsmm spglib mkl
 CP2K|             libvori libbqb
 CP2K| is freely available from                            https://www.cp2k.org/
 CP2K| Program compiled at                         Mon May 31 14:14:56 CEST 2021
 CP2K| Program compiled on                                               hpcl003
 CP2K| Program compiled for                                        carl-mkl-ompi
 CP2K| Data directory path            /user/pubo1141/software/cp2k/cp2k-8.2/data
 CP2K| Input file name                                                 aiida.inp

 GLOBAL| Force Environment number                                              1
 GLOBAL| Basis set file name                                    BASIS_MOLOPT_UCL
 GLOBAL| Potential file name                                      GTH_POTENTIALS
 GLOBAL| MM Potential file name                                     MM_POTENTIAL
 GLOBAL| Coordinate file name                                   aiida.coords.xyz
 GLOBAL| Method name                                                        CP2K
 GLOBAL| Project name                                                      aiida
 GLOBAL| Run type                                                         ENERGY
 GLOBAL| FFT library                                                       FFTW3
 GLOBAL| Diagonalization library                                       ScaLAPACK
 GLOBAL| Orthonormality check for eigenvectors                          DISABLED
 GLOBAL| Matrix multiplication library                                    SCALAP
 GLOBAL| All-to-all communication in single precision                          F
 GLOBAL| FFTs using library dependent lengths                                  F
 GLOBAL| Grid backend                                                       AUTO
 GLOBAL| Global print level                                               MEDIUM
 GLOBAL| MPI I/O enabled                                                       T
 GLOBAL| Total number of message passing processes                            12
 GLOBAL| Number of threads for this process                                    2
 GLOBAL| This output is from process                                           0
 GLOBAL| CPU model name                Intel(R) Xeon(R) CPU E5-2650 v4 @ 2.20GHz
 GLOBAL| CPUID                                                              1002
 GLOBAL| Compiled for CPUID                                                    0

 *** HINT in environment.F:872 :: The compiler target flags (generic) used ***
 *** to build this binary cannot exploit all extensions of this CPU model  ***
 *** (x86_avx2). Consider compiler target flags as part of FCFLAGS and     ***
 *** CFLAGS (ARCH file).                                                   ***


 MEMORY| system memory details [Kb]
 MEMORY|                        rank 0           min           max       average
 MEMORY| MemTotal            131594208     131594208     131594208     131594208
 MEMORY| MemFree              40503860      40503860      40504108      40504087
 MEMORY| Buffers                 27068         27068         27068         27068
 MEMORY| Cached               78484616      78484616      78484616      78484616
 MEMORY| Slab                  3503832       3503684       3503832       3503696
 MEMORY| SReclaimable          1616540       1616516       1616540       1616518
 MEMORY| MemLikelyFree       120632084     120632084     120632308     120632289


 *** Fundamental physical constants (SI units) ***

 *** Literature: B. J. Mohr and B. N. Taylor,
 ***             CODATA recommended values of the fundamental physical
 ***             constants: 2006, Web Version 5.1
 ***             http://physics.nist.gov/constants

 Speed of light in vacuum [m/s]                             2.99792458000000E+08
 Magnetic constant or permeability of vacuum [N/A**2]       1.25663706143592E-06
 Electric constant or permittivity of vacuum [F/m]          8.85418781762039E-12
 Planck constant (h) [J*s]                                  6.62606896000000E-34
 Planck constant (h-bar) [J*s]                              1.05457162825177E-34
 Elementary charge [C]                                      1.60217648700000E-19
 Electron mass [kg]                                         9.10938215000000E-31
 Electron g factor [ ]                                     -2.00231930436220E+00
 Proton mass [kg]                                           1.67262163700000E-27
 Fine-structure constant                                    7.29735253760000E-03
 Rydberg constant [1/m]                                     1.09737315685270E+07
 Avogadro constant [1/mol]                                  6.02214179000000E+23
 Boltzmann constant [J/K]                                   1.38065040000000E-23
 Atomic mass unit [kg]                                      1.66053878200000E-27
 Bohr radius [m]                                            5.29177208590000E-11

 *** Conversion factors ***

 [u] -> [a.u.]                                              1.82288848426455E+03
 [Angstrom] -> [Bohr] = [a.u.]                              1.88972613288564E+00
 [a.u.] = [Bohr] -> [Angstrom]                              5.29177208590000E-01
 [a.u.] -> [s]                                              2.41888432650478E-17
 [a.u.] -> [fs]                                             2.41888432650478E-02
 [a.u.] -> [J]                                              4.35974393937059E-18
 [a.u.] -> [N]                                              8.23872205491840E-08
 [a.u.] -> [K]                                              3.15774647902944E+05
 [a.u.] -> [kJ/mol]                                         2.62549961709828E+03
 [a.u.] -> [kcal/mol]                                       6.27509468713739E+02
 [a.u.] -> [Pa]                                             2.94210107994716E+13
 [a.u.] -> [bar]                                            2.94210107994716E+08
 [a.u.] -> [atm]                                            2.90362800883016E+08
 [a.u.] -> [eV]                                             2.72113838565563E+01
 [a.u.] -> [Hz]                                             6.57968392072181E+15
 [a.u.] -> [1/cm] (wave numbers)                            2.19474631370540E+05
 [a.u./Bohr**2] -> [1/cm]                                   5.14048714338585E+03
 

 CELL_TOP| Volume [angstrom^3]:                                      3335.322637
 CELL_TOP| Vector a [angstrom    16.273     0.000     0.000   |a| =    16.273218
 CELL_TOP| Vector b [angstrom    -5.224    16.834     0.000   |b| =    17.626018
 CELL_TOP| Vector c [angstrom    -4.321     4.615    12.175   |c| =    13.718640
 CELL_TOP| Angle (b,c), alpha [degree]:                                65.504700
 CELL_TOP| Angle (a,c), beta  [degree]:                               108.357962
 CELL_TOP| Angle (a,b), gamma [degree]:                               107.241747
 CELL_TOP| Numerically orthorhombic:                                          NO

 GENERATE|  Preliminary Number of Bonds generated:                             0
 GENERATE|  Achieved consistency in connectivity generation.

 CELL| Volume [angstrom^3]:                                          3335.322637
 CELL| Vector a [angstrom]:      16.273     0.000     0.000   |a| =    16.273218
 CELL| Vector b [angstrom]:      -5.224    16.834     0.000   |b| =    17.626018
 CELL| Vector c [angstrom]:      -4.321     4.615    12.175   |c| =    13.718640
 CELL| Angle (b,c), alpha [degree]:                                    65.504700
 CELL| Angle (a,c), beta  [degree]:                                   108.357962
 CELL| Angle (a,b), gamma [degree]:                                   107.241747
 CELL| Numerically orthorhombic:                                              NO

 CELL_REF| Volume [angstrom^3]:                                      3335.322637
 CELL_REF| Vector a [angstrom    16.273     0.000     0.000   |a| =    16.273218
 CELL_REF| Vector b [angstrom    -5.224    16.834     0.000   |b| =    17.626018
 CELL_REF| Vector c [angstrom    -4.321     4.615    12.175   |c| =    13.718640
 CELL_REF| Angle (b,c), alpha [degree]:                                65.504700
 CELL_REF| Angle (a,c), beta  [degree]:                               108.357962
 CELL_REF| Angle (a,b), gamma [degree]:                               107.241747
 CELL_REF| Numerically orthorhombic:                                          NO

 *******************************************************************************
                                    Kpoints
 *******************************************************************************
 BRILLOUIN| K-point scheme                                        Monkhorst-Pack
 BRILLOUIN| K-Point grid                                             5    5    7
 BRILLOUIN| Accuracy in Symmetry determination                      0.100000E-05
 BRILLOUIN| K-Point point group symmetrization                               OFF
 BRILLOUIN| Wavefunction type                                            COMPLEX
 BRILLOUIN| List of Kpoints [2 Pi/Bohr]                                       88
 BRILLOUIN| Number           Weight            X              Y              Z
 BRILLOUIN|     1           0.01143       -0.40000       -0.40000       -0.42857
 BRILLOUIN|     2           0.01143       -0.40000       -0.40000       -0.28571
 BRILLOUIN|     3           0.01143       -0.40000       -0.40000       -0.14286
 BRILLOUIN|     4           0.01143       -0.40000       -0.40000        0.00000
 BRILLOUIN|     5           0.01143       -0.40000       -0.40000        0.14286
 BRILLOUIN|     6           0.01143       -0.40000       -0.40000        0.28571
 BRILLOUIN|     7           0.01143       -0.40000       -0.40000        0.42857
 BRILLOUIN|     8           0.01143       -0.40000       -0.20000       -0.42857
 BRILLOUIN|     9           0.01143       -0.40000       -0.20000       -0.28571
 BRILLOUIN|    10           0.01143       -0.40000       -0.20000       -0.14286
 BRILLOUIN|    11           0.01143       -0.40000       -0.20000        0.00000
 BRILLOUIN|    12           0.01143       -0.40000       -0.20000        0.14286
 BRILLOUIN|    13           0.01143       -0.40000       -0.20000        0.28571
 BRILLOUIN|    14           0.01143       -0.40000       -0.20000        0.42857
 BRILLOUIN|    15           0.01143       -0.40000        0.00000       -0.42857
 BRILLOUIN|    16           0.01143       -0.40000        0.00000       -0.28571
 BRILLOUIN|    17           0.01143       -0.40000        0.00000       -0.14286
 BRILLOUIN|    18           0.01143       -0.40000        0.00000        0.00000
 BRILLOUIN|    19           0.01143       -0.40000        0.00000        0.14286
 BRILLOUIN|    20           0.01143       -0.40000        0.00000        0.28571
 BRILLOUIN|    21           0.01143       -0.40000        0.00000        0.42857
 BRILLOUIN|    22           0.01143       -0.40000        0.20000       -0.42857
 BRILLOUIN|    23           0.01143       -0.40000        0.20000       -0.28571
 BRILLOUIN|    24           0.01143       -0.40000        0.20000       -0.14286
 BRILLOUIN|    25           0.01143       -0.40000        0.20000        0.00000
 BRILLOUIN|    26           0.01143       -0.40000        0.20000        0.14286
 BRILLOUIN|    27           0.01143       -0.40000        0.20000        0.28571
 BRILLOUIN|    28           0.01143       -0.40000        0.20000        0.42857
 BRILLOUIN|    29           0.01143       -0.40000        0.40000       -0.42857
 BRILLOUIN|    30           0.01143       -0.40000        0.40000       -0.28571
 BRILLOUIN|    31           0.01143       -0.40000        0.40000       -0.14286
 BRILLOUIN|    32           0.01143       -0.40000        0.40000        0.00000
 BRILLOUIN|    33           0.01143       -0.40000        0.40000        0.14286
 BRILLOUIN|    34           0.01143       -0.40000        0.40000        0.28571
 BRILLOUIN|    35           0.01143       -0.40000        0.40000        0.42857
 BRILLOUIN|    36           0.01143       -0.20000       -0.40000       -0.42857
 BRILLOUIN|    37           0.01143       -0.20000       -0.40000       -0.28571
 BRILLOUIN|    38           0.01143       -0.20000       -0.40000       -0.14286
 BRILLOUIN|    39           0.01143       -0.20000       -0.40000        0.00000
 BRILLOUIN|    40           0.01143       -0.20000       -0.40000        0.14286
 BRILLOUIN|    41           0.01143       -0.20000       -0.40000        0.28571
 BRILLOUIN|    42           0.01143       -0.20000       -0.40000        0.42857
 BRILLOUIN|    43           0.01143       -0.20000       -0.20000       -0.42857
 BRILLOUIN|    44           0.01143       -0.20000       -0.20000       -0.28571
 BRILLOUIN|    45           0.01143       -0.20000       -0.20000       -0.14286
 BRILLOUIN|    46           0.01143       -0.20000       -0.20000        0.00000
 BRILLOUIN|    47           0.01143       -0.20000       -0.20000        0.14286
 BRILLOUIN|    48           0.01143       -0.20000       -0.20000        0.28571
 BRILLOUIN|    49           0.01143       -0.20000       -0.20000        0.42857
 BRILLOUIN|    50           0.01143       -0.20000        0.00000       -0.42857
 BRILLOUIN|    51           0.01143       -0.20000        0.00000       -0.28571
 BRILLOUIN|    52           0.01143       -0.20000        0.00000       -0.14286
 BRILLOUIN|    53           0.01143       -0.20000        0.00000        0.00000
 BRILLOUIN|    54           0.01143       -0.20000        0.00000        0.14286
 BRILLOUIN|    55           0.01143       -0.20000        0.00000        0.28571
 BRILLOUIN|    56           0.01143       -0.20000        0.00000        0.42857
 BRILLOUIN|    57           0.01143       -0.20000        0.20000       -0.42857
 BRILLOUIN|    58           0.01143       -0.20000        0.20000       -0.28571
 BRILLOUIN|    59           0.01143       -0.20000        0.20000       -0.14286
 BRILLOUIN|    60           0.01143       -0.20000        0.20000        0.00000
 BRILLOUIN|    61           0.01143       -0.20000        0.20000        0.14286
 BRILLOUIN|    62           0.01143       -0.20000        0.20000        0.28571
 BRILLOUIN|    63           0.01143       -0.20000        0.20000        0.42857
 BRILLOUIN|    64           0.01143       -0.20000        0.40000       -0.42857
 BRILLOUIN|    65           0.01143       -0.20000        0.40000       -0.28571
 BRILLOUIN|    66           0.01143       -0.20000        0.40000       -0.14286
 BRILLOUIN|    67           0.01143       -0.20000        0.40000        0.00000
 BRILLOUIN|    68           0.01143       -0.20000        0.40000        0.14286
 BRILLOUIN|    69           0.01143       -0.20000        0.40000        0.28571
 BRILLOUIN|    70           0.01143       -0.20000        0.40000        0.42857
 BRILLOUIN|    71           0.01143        0.00000       -0.40000       -0.42857
 BRILLOUIN|    72           0.01143        0.00000       -0.40000       -0.28571
 BRILLOUIN|    73           0.01143        0.00000       -0.40000       -0.14286
 BRILLOUIN|    74           0.01143        0.00000       -0.40000        0.00000
 BRILLOUIN|    75           0.01143        0.00000       -0.40000        0.14286
 BRILLOUIN|    76           0.01143        0.00000       -0.40000        0.28571
 BRILLOUIN|    77           0.01143        0.00000       -0.40000        0.42857
 BRILLOUIN|    78           0.01143        0.00000       -0.20000       -0.42857
 BRILLOUIN|    79           0.01143        0.00000       -0.20000       -0.28571
 BRILLOUIN|    80           0.01143        0.00000       -0.20000       -0.14286
 BRILLOUIN|    81           0.01143        0.00000       -0.20000        0.00000
 BRILLOUIN|    82           0.01143        0.00000       -0.20000        0.14286
 BRILLOUIN|    83           0.01143        0.00000       -0.20000        0.28571
 BRILLOUIN|    84           0.01143        0.00000       -0.20000        0.42857
 BRILLOUIN|    85           0.01143        0.00000        0.00000       -0.42857
 BRILLOUIN|    86           0.01143        0.00000        0.00000       -0.28571
 BRILLOUIN|    87           0.01143        0.00000        0.00000       -0.14286
 BRILLOUIN|    88           0.00571        0.00000        0.00000        0.00000
 *******************************************************************************

 *******************************************************************************
 *******************************************************************************
 **                                                                           **
 **     #####                         ##              ##                      **
 **    ##   ##            ##          ##              ##                      **
 **   ##     ##                       ##            ######                    **
 **   ##     ##  ##   ##  ##   #####  ##  ##   ####   ##    #####    #####    **
 **   ##     ##  ##   ##  ##  ##      ## ##   ##      ##   ##   ##  ##   ##   **
 **   ##  ## ##  ##   ##  ##  ##      ####     ###    ##   ######   ######    **
 **    ##  ###   ##   ##  ##  ##      ## ##      ##   ##   ##       ##        **
 **     #######   #####   ##   #####  ##  ##  ####    ##    #####   ##        **
 **           ##                                                    ##        **
 **                                                                           **
 **                                                ... make the atoms dance   **
 **                                                                           **
 **            Copyright (C) by CP2K developers group (2000-2021)             **
 **                      J. Chem. Phys. 152, 194103 (2020)                    **
 **                                                                           **
 *******************************************************************************

 DFT| Spin restricted Kohn-Sham (RKS) calculation                            RKS
 DFT| Multiplicity                                                             1
 DFT| Number of spin states                                                    1
 DFT| Charge                                                                   0
 DFT| Self-interaction correction (SIC)                                       NO
 DFT| Cutoffs: density                                              1.000000E-10
 DFT|          gradient                                             1.000000E-10
 DFT|          tau                                                  1.000000E-10
 DFT|          cutoff_smoothing_range                               0.000000E+00
 DFT| XC density smoothing                                                  NONE
 DFT| XC derivatives                                                          PW
 FUNCTIONAL| ROUTINE=NEW
 FUNCTIONAL| PBE:
 FUNCTIONAL| J.P.Perdew, K.Burke, M.Ernzerhof, Phys. Rev. Letter, vol. 77, n 18,
 FUNCTIONAL|  pp. 3865-3868, (1996){spin unpolarized}                           

 QS| Method:                                                                 GPW
 QS| Density plane wave grid type                        NON-SPHERICAL FULLSPACE
 QS| Number of grid levels:                                                    4
 QS| Density cutoff [a.u.]:                                                100.0
 QS| Multi grid cutoff [a.u.]: 1) grid level                               100.0
 QS|                           2) grid level                                33.3
 QS|                           3) grid level                                11.1
 QS|                           4) grid level                                 3.7
 QS| Grid level progression factor:                                          3.0
 QS| Relative density cutoff [a.u.]:                                        25.0
 QS| Interaction thresholds: eps_pgf_orb:                                1.0E-04
 QS|                         eps_filter_matrix:                          0.0E+00
 QS|                         eps_core_charge:                            1.0E-10
 QS|                         eps_rho_gspace:                             1.0E-08
 QS|                         eps_rho_rspace:                             1.0E-08
 QS|                         eps_gvg_rspace:                             1.0E-04
 QS|                         eps_ppl:                                    1.0E-02
 QS|                         eps_ppnl:                                   1.0E-06


 ATOMIC KIND INFORMATION

  1. Atomic kind: Cs                                    Number of atoms:      28

     Orbital Basis Set                                        DZVP-MOLOPT-SR-GTH

       Number of orbital shell sets:                                           1
       Number of orbital shells:                                               6
       Number of primitive Cartesian functions:                                6
       Number of Cartesian basis functions:                                   15
       Number of spherical basis functions:                                   14
       Norm type:                                                              2

       Normalised Cartesian orbitals:

                        Set   Shell   Orbital            Exponent    Coefficient

                          1       1    2s                1.000866       0.374652
                                                         0.913482       0.447213
                                                         0.666654      -0.482233
                                                         0.332486      -0.299606
                                                         0.149837      -0.045594
                                                         0.026691       0.024754

                          1       2    3s                1.000866       0.063459
                                                         0.913482      -0.059302
                                                         0.666654       0.056266
                                                         0.332486      -0.135928
                                                         0.149837       0.012155
                                                         0.026691       0.050045

                          1       3    4s                1.000866       0.019138
                                                         0.913482       0.189431
                                                         0.666654      -0.298798
                                                         0.332486       0.818329
                                                         0.149837      -0.509541
                                                         0.026691       0.047786

                          1       4    3px               1.000866      -0.632251
                                                         0.913482      -0.025433
                                                         0.666654       0.528297
                                                         0.332486       0.148959
                                                         0.149837       0.056305
                                                         0.026691       0.000225
                          1       4    3py               1.000866      -0.632251
                                                         0.913482      -0.025433
                                                         0.666654       0.528297
                                                         0.332486       0.148959
                                                         0.149837       0.056305
                                                         0.026691       0.000225
                          1       4    3pz               1.000866      -0.632251
                                                         0.913482      -0.025433
                                                         0.666654       0.528297
                                                         0.332486       0.148959
                                                         0.149837       0.056305
                                                         0.026691       0.000225

                          1       5    4px               1.000866       0.003116
                                                         0.913482       0.100874
                                                         0.666654      -0.106148
                                                         0.332486      -0.012146
                                                         0.149837      -0.009508
                                                         0.026691       0.015912
                          1       5    4py               1.000866       0.003116
                                                         0.913482       0.100874
                                                         0.666654      -0.106148
                                                         0.332486      -0.012146
                                                         0.149837      -0.009508
                                                         0.026691       0.015912
                          1       5    4pz               1.000866       0.003116
                                                         0.913482       0.100874
                                                         0.666654      -0.106148
                                                         0.332486      -0.012146
                                                         0.149837      -0.009508
                                                         0.026691       0.015912

                          1       6    4dx2              1.000866       0.209582
                                                         0.913482       0.087006
                                                         0.666654      -0.167560
                                                         0.332486      -0.110462
                                                         0.149837      -0.034232
                                                         0.026691       0.000970
                          1       6    4dxy              1.000866       0.363006
                                                         0.913482       0.150699
                                                         0.666654      -0.290222
                                                         0.332486      -0.191325
                                                         0.149837      -0.059291
                                                         0.026691       0.001680
                          1       6    4dxz              1.000866       0.363006
                                                         0.913482       0.150699
                                                         0.666654      -0.290222
                                                         0.332486      -0.191325
                                                         0.149837      -0.059291
                                                         0.026691       0.001680
                          1       6    4dy2              1.000866       0.209582
                                                         0.913482       0.087006
                                                         0.666654      -0.167560
                                                         0.332486      -0.110462
                                                         0.149837      -0.034232
                                                         0.026691       0.000970
                          1       6    4dyz              1.000866       0.363006
                                                         0.913482       0.150699
                                                         0.666654      -0.290222
                                                         0.332486      -0.191325
                                                         0.149837      -0.059291
                                                         0.026691       0.001680
                          1       6    4dz2              1.000866       0.209582
                                                         0.913482       0.087006
                                                         0.666654      -0.167560
                                                         0.332486      -0.110462
                                                         0.149837      -0.034232
                                                         0.026691       0.000970

       Atomic covalent radius [Angstrom]:                                  2.350

       Atomic van der Waals radius [Angstrom]:                             3.430

     GTH Potential information for                                    GTH-PBE-q9

       Description:                       Goedecker-Teter-Hutter pseudopotential
                                           Goedecker et al., PRB 54, 1703 (1996)
                                          Hartwigsen et al., PRB 58, 3641 (1998)
                                                      Krack, TCA 114, 145 (2005)

       Gaussian exponent of the core charge distribution:               1.714678
       Electronic configuration (s p d ...):                               3   6

       Parameters of the local part of the GTH pseudopotential:

                          rloc        C1          C2          C3          C4
                        0.540000   33.313317   -2.921217

       Parameters of the non-local part of the GTH pseudopotential:

                   l      r(l)      h(i,j,l)

                   0    0.461896   -3.322927    2.455653
                                    2.455653   -3.170235
                   1    0.366359   -4.950764    0.840390
                                    0.840390   -0.994363
                   2    0.761502    0.198407
                   3    0.597015   -1.550567


 MOLECULE KIND INFORMATION


 All atoms are their own molecule, skipping detailed information


 TOTAL NUMBERS AND MAXIMUM NUMBERS

  Total number of            - Atomic kinds:                                   1
                             - Atoms:                                         28
                             - Shell sets:                                    28
                             - Shells:                                       168
                             - Primitive Cartesian functions:                168
                             - Cartesian basis functions:                    420
                             - Spherical basis functions:                    392

  Maximum angular momentum of- Orbital basis functions:                        2
                             - Local part of the GTH pseudopotential:          2
                             - Non-local part of the GTH pseudopotential:      3


 MODULE QUICKSTEP:  ATOMIC COORDINATES IN angstrom

  Atom  Kind  Element       X           Y           Z          Z(eff)       Mass

       1     1 Cs  55    3.596160   -3.314443    2.574463      9.0000     132.9055
       2     1 Cs  55    1.787369    9.206283    4.223603      9.0000     132.9055
       3     1 Cs  55   -1.013786    6.009527    7.706216      9.0000     132.9055
       4     1 Cs  55    0.685082   10.078319   -0.857192      9.0000     132.9055
       5     1 Cs  55    8.721278   17.742947    9.447601      9.0000     132.9055
       6     1 Cs  55    1.713624    1.083009    5.887754      9.0000     132.9055
       7     1 Cs  55    3.803358    3.956690    0.958029      9.0000     132.9055
       8     1 Cs  55    4.521046   14.438703    7.699925      9.0000     132.9055
       9     1 Cs  55    9.331730   12.354697    0.959289      9.0000     132.9055
      10     1 Cs  55    4.393607   13.425419    2.551649      9.0000     132.9055
      11     1 Cs  55   15.304669  -12.592374    7.580088      9.0000     132.9055
      12     1 Cs  55   20.371875  -11.824769    2.540774      9.0000     132.9055
      13     1 Cs  55   28.800404    0.831843    4.253137      9.0000     132.9055
      14     1 Cs  55   17.469872  -11.991758   12.671744      9.0000     132.9055
      15     1 Cs  55   16.820486   -7.480517    9.468287      9.0000     132.9055
      16     1 Cs  55   22.356234    0.960084    9.478218      9.0000     132.9055
      17     1 Cs  55   14.354000  -11.719669    2.582037      9.0000     132.9055
      18     1 Cs  55   12.311483  -10.567423   11.356286      9.0000     132.9055
      19     1 Cs  55   17.628484   -7.748131    4.204362      9.0000     132.9055
      20     1 Cs  55   23.137287    0.667475    4.196560      9.0000     132.9055
      21     1 Cs  55    8.431917   -7.523137    9.437322      9.0000     132.9055
      22     1 Cs  55   12.465890   -7.327406    5.877878      9.0000     132.9055
      23     1 Cs  55   12.845646   -4.432040   11.159631      9.0000     132.9055
      24     1 Cs  55   18.361402    3.971007   11.173035      9.0000     132.9055
      25     1 Cs  55    8.894010   -8.821384   -4.606504      9.0000     132.9055
      26     1 Cs  55   15.376101   -3.222697    6.213326      9.0000     132.9055
      27     1 Cs  55   20.906621    5.190806    6.215296      9.0000     132.9055
      28     1 Cs  55   11.056641   -8.173535    0.472767      9.0000     132.9055




 SCF PARAMETERS         Density guess:                                   RESTART
                        --------------------------------------------------------
                        max_scf:                                             250
                        max_scf_history:                                       0
                        max_diis:                                              4
                        --------------------------------------------------------
                        eps_scf:                                        1.00E-04
                        eps_scf_history:                                0.00E+00
                        eps_diis:                                       1.00E-01
                        eps_eigval:                                     1.00E-05
                        --------------------------------------------------------
                        level_shift [a.u.]:                                 0.00
                        added MOs                                        10    0
                        --------------------------------------------------------
                        Mixing method:                            BROYDEN_MIXING
                                                charge density mixing in g-space
                        --------------------------------------------------------
                        No outer SCF

 PW_GRID| Information for grid number                                          1
 PW_GRID| Grid distributed over                                    12 processors
 PW_GRID| Real space group dimensions                                    12    1
 PW_GRID| the grid is blocked:                                                NO
 PW_GRID| Cutoff [a.u.]                                                    100.0
 PW_GRID| spherical cutoff:                                                   NO
 PW_GRID|   Bounds   1            -72      71                Points:         144
 PW_GRID|   Bounds   2            -75      74                Points:         150
 PW_GRID|   Bounds   3            -60      59                Points:         120
 PW_GRID| Volume element (a.u.^3)  0.8684E-02     Volume (a.u.^3)     22507.8731
 PW_GRID| Grid span                                                    FULLSPACE
 PW_GRID|   Distribution                         Average         Max         Min
 PW_GRID|   G-Vectors                           216000.0      216000      216000
 PW_GRID|   G-Rays                                1500.0        1500        1500
 PW_GRID|   Real Space Points                   216000.0      216000      216000

 PW_GRID| Information for grid number                                          2
 PW_GRID| Number of the reference grid                                         1
 PW_GRID| Grid distributed over                                    12 processors
 PW_GRID| Real space group dimensions                                    12    1
 PW_GRID| the grid is blocked:                                                NO
 PW_GRID| Cutoff [a.u.]                                                     33.3
 PW_GRID| spherical cutoff:                                                   NO
 PW_GRID|   Bounds   1            -40      39                Points:          80
 PW_GRID|   Bounds   2            -45      44                Points:          90
 PW_GRID|   Bounds   3            -36      35                Points:          72
 PW_GRID| Volume element (a.u.^3)  0.4342E-01     Volume (a.u.^3)     22507.8731
 PW_GRID| Grid span                                                    FULLSPACE
 PW_GRID|   Distribution                         Average         Max         Min
 PW_GRID|   G-Vectors                            43200.0       43280       43120
 PW_GRID|   G-Rays                                 540.0         541         539
 PW_GRID|   Real Space Points                    43200.0       45360       38880

 PW_GRID| Information for grid number                                          3
 PW_GRID| Number of the reference grid                                         1
 PW_GRID| Grid distributed over                                    12 processors
 PW_GRID| Real space group dimensions                                    12    1
 PW_GRID| the grid is blocked:                                                NO
 PW_GRID| Cutoff [a.u.]                                                     11.1
 PW_GRID| spherical cutoff:                                                   NO
 PW_GRID|   Bounds   1            -24      23                Points:          48
 PW_GRID|   Bounds   2            -27      26                Points:          54
 PW_GRID|   Bounds   3            -20      19                Points:          40
 PW_GRID| Volume element (a.u.^3)  0.2171         Volume (a.u.^3)     22507.8731
 PW_GRID| Grid span                                                    FULLSPACE
 PW_GRID|   Distribution                         Average         Max         Min
 PW_GRID|   G-Vectors                             8640.0        8832        8496
 PW_GRID|   G-Rays                                 180.0         184         177
 PW_GRID|   Real Space Points                     8640.0        8640        8640

 PW_GRID| Information for grid number                                          4
 PW_GRID| Number of the reference grid                                         1
 PW_GRID| Grid distributed over                                    12 processors
 PW_GRID| Real space group dimensions                                    12    1
 PW_GRID| the grid is blocked:                                                NO
 PW_GRID| Cutoff [a.u.]                                                      3.7
 PW_GRID| spherical cutoff:                                                   NO
 PW_GRID|   Bounds   1            -13      13                Points:          27
 PW_GRID|   Bounds   2            -15      14                Points:          30
 PW_GRID|   Bounds   3            -12      11                Points:          24
 PW_GRID| Volume element (a.u.^3)   1.158         Volume (a.u.^3)     22507.8731
 PW_GRID| Grid span                                                    FULLSPACE
 PW_GRID|   Distribution                         Average         Max         Min
 PW_GRID|   G-Vectors                             1620.0        1647        1593
 PW_GRID|   G-Rays                                  60.0          61          59
 PW_GRID|   Real Space Points                     1620.0        2160        1440

 POISSON| Solver                                                        PERIODIC
 POISSON| Periodicity                                                        XYZ

 RS_GRID| Information for grid number                                          1
 RS_GRID|   Bounds   1            -72      71                Points:         144
 RS_GRID|   Bounds   2            -75      74                Points:         150
 RS_GRID|   Bounds   3            -60      59                Points:         120
 RS_GRID| Real space fully replicated
 RS_GRID| Group size                                                           1

 RS_GRID| Information for grid number                                          2
 RS_GRID|   Bounds   1            -40      39                Points:          80
 RS_GRID|   Bounds   2            -45      44                Points:          90
 RS_GRID|   Bounds   3            -36      35                Points:          72
 RS_GRID| Real space fully replicated
 RS_GRID| Group size                                                           1

 RS_GRID| Information for grid number                                          3
 RS_GRID|   Bounds   1            -24      23                Points:          48
 RS_GRID|   Bounds   2            -27      26                Points:          54
 RS_GRID|   Bounds   3            -20      19                Points:          40
 RS_GRID| Real space fully replicated
 RS_GRID| Group size                                                           1

 RS_GRID| Information for grid number                                          4
 RS_GRID|   Bounds   1            -13      13                Points:          27
 RS_GRID|   Bounds   2            -15      14                Points:          30
 RS_GRID|   Bounds   3            -12      11                Points:          24
 RS_GRID| Real space fully replicated
 RS_GRID| Group size                                                           1

 KPOINTS| Number of kpoint groups                                              1
 KPOINTS| Size of each kpoint group                                           12
 KPOINTS| Number of kpoints per group                                         88

 Number of electrons:                                                        252
 Number of occupied orbitals:                                                126
 Number of molecular orbitals:                                               136

 Number of orbital functions:                                                392
 Number of independent orbital functions:                                    392

 Extrapolation method: initial_guess

 *** WARNING in qs_initial_guess.F:309 :: User requested to restart the    ***
 *** wavefunction from the file named: aiida-RESTART.kp. This file does    ***
 *** not exist. Please check the existence of the file or change properly  ***
 *** the value of the keyword WFN_RESTART_FILE_NAME. Calculation continues ***
 *** using ATOMIC GUESS.                                                   ***


 Atomic guess: The first density matrix is obtained in terms of atomic orbitals
               and electronic configurations assigned to each atomic kind

 Guess for atomic kind: Cs

 Electronic structure
    Total number of core electrons                                         46.00
    Total number of valence electrons                                       9.00
    Total number of electrons                                              55.00
    Multiplicity                                                   not specified
    S   [  2.00  2.00  2.00  2.00] 2.00  1.00
    P   [  6.00  6.00  6.00] 6.00
    D   [ 10.00 10.00]


 *******************************************************************************
                  Iteration          Convergence                     Energy [au]
 *******************************************************************************
                          1        0.217823                     -19.955577345183
                          2        0.458189E-01                 -19.991365249718
                          3        0.800284E-03                 -19.992243521365
                          4        0.308329E-05                 -19.992243799227
                          5        0.172284E-07                 -19.992243799230

 Energy components [Hartree]           Total Energy ::          -19.992243799230
                                        Band Energy ::           -4.905196256014
                                     Kinetic Energy ::            5.178742025475
                                   Potential Energy ::          -25.170985824705
                                      Virial (-V/T) ::            4.860444042373
                                        Core Energy ::          -32.972937773906
                                          XC Energy ::           -3.037331543174
                                     Coulomb Energy ::           16.018025517850
                       Total Pseudopotential Energy ::          -38.193813522810
                       Local Pseudopotential Energy ::          -37.110283622776
                    Nonlocal Pseudopotential Energy ::           -1.083529900034
                                        Confinement ::            0.421337234293

 Orbital energies  State     L     Occupation   Energy[a.u.]          Energy[eV]

                       1     0          2.000      -0.967551          -26.328405
                       2     0          1.000      -0.059150           -1.609558

                       1     1          6.000      -0.485157          -13.201802


 Total Electron Density at R=0:                                         0.001325
 Re-scaling the density matrix to get the right number of electrons
                  # Electrons              Trace(P)               Scaling factor
                          252               252.000                        1.000


 SCF WAVEFUNCTION OPTIMIZATION

  Step     Update method      Time    Convergence         Total energy    Change
  ------------------------------------------------------------------------------
     1 NoMix/Diag. 0.10E-01    7.2     0.51768043      -564.4443182518 -5.64E+02
     2 Broy./Diag. 0.10E-01    7.7     0.00013459      -564.3500897263  9.42E-02
     3 Broy./Diag. 0.10E-01    7.5     0.01642258      -563.9038530019  4.46E-01
     4 Broy./Diag. 0.10E-01    7.5     0.00003519      -563.6915024101  2.12E-01

  *** SCF run converged in     4 steps ***


  Electronic density on regular grids:       -251.9999999818        0.0000000182
  Core density on regular grids:              251.9999967109       -0.0000032891
  Total charge density on r-space grids:       -0.0000032709
  Total charge density g-space grids:          -0.0000032709

  Overlap energy of the core charge distribution:               0.00000000000000
  Self energy of the core charge distribution:              -1184.79812545028835
  Core Hamiltonian energy:                                    228.79777237352479
  Hartree energy:                                             480.24802195605446
  Exchange-correlation energy:                                -87.93917128936582

  Total energy:                                              -563.69150241007492

 MO| EIGENVALUES AND OCCUPATION NUMBERS FOR K POINT 1
 MO|
 MO|  Index      Eigenvalue [a.u.]        Eigenvalue [eV]             Occupation
 MO|      1              -0.821759             -22.361209               2.000000
 MO|      2              -0.821744             -22.360792               2.000000
 MO|      3              -0.821477             -22.353522               2.000000
 MO|      4              -0.821457             -22.352978               2.000000
 MO|      5              -0.821299             -22.348691               2.000000
 MO|      6              -0.821267             -22.347807               2.000000
 MO|      7              -0.820995             -22.340401               2.000000
 MO|      8              -0.820955             -22.339320               2.000000
 MO|      9              -0.820940             -22.338911               2.000000
 MO|     10              -0.820926             -22.338529               2.000000
 MO|     11              -0.820917             -22.338289               2.000000
 MO|     12              -0.820900             -22.337831               2.000000
 MO|     13              -0.820883             -22.337352               2.000000
 MO|     14              -0.820871             -22.337026               2.000000
 MO|     15              -0.820854             -22.336569               2.000000
 MO|     16              -0.820836             -22.336082               2.000000
 MO|     17              -0.820789             -22.334809               2.000000
 MO|     18              -0.820757             -22.333934               2.000000
 MO|     19              -0.820646             -22.330919               2.000000
 MO|     20              -0.820607             -22.329862               2.000000
 MO|     21              -0.820587             -22.329316               2.000000
 MO|     22              -0.820550             -22.328311               2.000000
 MO|     23              -0.820480             -22.326392               2.000000
 MO|     24              -0.820455             -22.325722               2.000000
 MO|     25              -0.820406             -22.324389               2.000000
 MO|     26              -0.820334             -22.322420               2.000000
 MO|     27              -0.820318             -22.321998               2.000000
 MO|     28              -0.820283             -22.321023               2.000000
 MO|     29              -0.340689              -9.270625               2.000000
 MO|     30              -0.340517              -9.265926               2.000000
 MO|     31              -0.339986              -9.251478               2.000000
 MO|     32              -0.339692              -9.243477               2.000000
 MO|     33              -0.339615              -9.241404               2.000000
 MO|     34              -0.339513              -9.238625               2.000000
 MO|     35              -0.339353              -9.234260               2.000000
 MO|     36              -0.339332              -9.233695               2.000000
 MO|     37              -0.339289              -9.232527               2.000000
 MO|     38              -0.339160              -9.229014               2.000000
 MO|     39              -0.339124              -9.228045               2.000000
 MO|     40              -0.338946              -9.223190               2.000000
 MO|     41              -0.338906              -9.222106               2.000000
 MO|     42              -0.338828              -9.219979               2.000000
 MO|     43              -0.338705              -9.216621               2.000000
 MO|     44              -0.338664              -9.215522               2.000000
 MO|     45              -0.338524              -9.211709               2.000000
 MO|     46              -0.338432              -9.209210               2.000000
 MO|     47              -0.338307              -9.205791               2.000000
 MO|     48              -0.338257              -9.204438               2.000000
 MO|     49              -0.338241              -9.204015               2.000000
 MO|     50              -0.338120              -9.200704               2.000000
 MO|     51              -0.338066              -9.199257               2.000000
 MO|     52              -0.338038              -9.198484               2.000000
 MO|     53              -0.337980              -9.196890               2.000000
 MO|     54              -0.337752              -9.190703               2.000000
 MO|     55              -0.337693              -9.189107               2.000000
 MO|     56              -0.337622              -9.187153               2.000000
 MO|     57              -0.337581              -9.186039               2.000000
 MO|     58              -0.337480              -9.183289               2.000000
 MO|     59              -0.337394              -9.180966               2.000000
 MO|     60              -0.337351              -9.179782               2.000000
 MO|     61              -0.337314              -9.178785               2.000000
 MO|     62              -0.337244              -9.176876               2.000000
 MO|     63              -0.337204              -9.175799               2.000000
 MO|     64              -0.337075              -9.172268               2.000000
 MO|     65              -0.337036              -9.171215               2.000000
 MO|     66              -0.336979              -9.169658               2.000000
 MO|     67              -0.336884              -9.167078               2.000000
 MO|     68              -0.336791              -9.164542               2.000000
 MO|     69              -0.336776              -9.164140               2.000000
 MO|     70              -0.336697              -9.161993               2.000000
 MO|     71              -0.336690              -9.161796               2.000000
 MO|     72              -0.336621              -9.159932               2.000000
 MO|     73              -0.336549              -9.157963               2.000000
 MO|     74              -0.336534              -9.157553               2.000000
 MO|     75              -0.336473              -9.155886               2.000000
 MO|     76              -0.336455              -9.155409               2.000000
 MO|     77              -0.336429              -9.154704               2.000000
 MO|     78              -0.336412              -9.154237               2.000000
 MO|     79              -0.336347              -9.152473               2.000000
 MO|     80              -0.336334              -9.152111               2.000000
 MO|     81              -0.336284              -9.150760               2.000000
 MO|     82              -0.336193              -9.148270               2.000000
 MO|     83              -0.336161              -9.147406               2.000000
 MO|     84              -0.336127              -9.146470               2.000000
 MO|     85              -0.336100              -9.145752               2.000000
 MO|     86              -0.336067              -9.144839               2.000000
 MO|     87              -0.336057              -9.144571               2.000000
 MO|     88              -0.335983              -9.142561               2.000000
 MO|     89              -0.335926              -9.141010               2.000000
 MO|     90              -0.335889              -9.140008               2.000000
 MO|     91              -0.335879              -9.139737               2.000000
 MO|     92              -0.335756              -9.136385               2.000000
 MO|     93              -0.335738              -9.135901               2.000000
 MO|     94              -0.335702              -9.134929               2.000000
 MO|     95              -0.335694              -9.134701               2.000000
 MO|     96              -0.335651              -9.133535               2.000000
 MO|     97              -0.335627              -9.132866               2.000000
 MO|     98              -0.335585              -9.131725               2.000000
 MO|     99              -0.335558              -9.131002               2.000000
 MO|    100              -0.335536              -9.130394               2.000000
 MO|    101              -0.335485              -9.129020               2.000000
 MO|    102              -0.335456              -9.128231               2.000000
 MO|    103              -0.335445              -9.127910               2.000000
 MO|    104              -0.335418              -9.127176               2.000000
 MO|    105              -0.335341              -9.125094               2.000000
 MO|    106              -0.335326              -9.124687               2.000000
 MO|    107              -0.335268              -9.123103               2.000000
 MO|    108              -0.335241              -9.122367               2.000000
 MO|    109              -0.335172              -9.120481               2.000000
 MO|    110              -0.335137              -9.119540               2.000000
 MO|    111              -0.335050              -9.117174               2.000000
 MO|    112              -0.334802              -9.110423               2.000000
 MO|    113               0.012246               0.333223               2.000000
 MO|    114               0.014615               0.397683               2.000000
 MO|    115               0.017854               0.485822               2.000000
 MO|    116               0.027774               0.755764               2.000000
 MO|    117               0.029329               0.798069               2.000000
 MO|    118               0.034719               0.944758               2.000000
 MO|    119               0.036034               0.980535               2.000000
 MO|    120               0.037732               1.026734               2.000000
 MO|    121               0.042833               1.165538               2.000000
 MO|    122               0.049814               1.355496               2.000000
 MO|    123               0.053131               1.445778               2.000000
 MO|    124               0.056376               1.534064               2.000000
 MO|    125               0.061270               1.667249               2.000000
 MO|    126               0.065680               1.787231               0.000000
 MO|    127               0.067467               1.835874               0.000000
 MO|    128               0.069169               1.882174               0.000000
 MO|    129               0.072165               1.963719               0.000000
 MO|    130               0.073016               1.986864               0.000000
 MO|    131               0.073457               1.998859               0.000000
 MO|    132               0.076573               2.083659               0.000000
 MO|    133               0.079053               2.151139               0.000000
 MO|    134               0.079848               2.172766               0.000000
 MO|    135               0.080589               2.192950               0.000000
 MO|    136               0.080971               2.203331               0.000000
 MO| Sum:                                                             250.000000
 MO| E(Fermi):            0.062077 a.u.          1.689198 eV


 MO| EIGENVALUES AND OCCUPATION NUMBERS FOR K POINT 2
 MO|
 MO|  Index      Eigenvalue [a.u.]        Eigenvalue [eV]             Occupation
 MO|      1              -0.821759             -22.361209               2.000000
 MO|      2              -0.821744             -22.360793               2.000000
 MO|      3              -0.821477             -22.353526               2.000000
 MO|      4              -0.821457             -22.352984               2.000000
 MO|      5              -0.821300             -22.348698               2.000000
 MO|      6              -0.821267             -22.347811               2.000000
 MO|      7              -0.820995             -22.340408               2.000000
 MO|      8              -0.820957             -22.339376               2.000000
 MO|      9              -0.820941             -22.338953               2.000000
 MO|     10              -0.820927             -22.338563               2.000000
 MO|     11              -0.820914             -22.338196               2.000000
 MO|     12              -0.820899             -22.337790               2.000000
 MO|     13              -0.820879             -22.337253               2.000000
 MO|     14              -0.820874             -22.337109               2.000000
 MO|     15              -0.820848             -22.336415               2.000000
 MO|     16              -0.820834             -22.336039               2.000000
 MO|     17              -0.820793             -22.334902               2.000000
 MO|     18              -0.820760             -22.334010               2.000000
 MO|     19              -0.820646             -22.330925               2.000000
 MO|     20              -0.820608             -22.329872               2.000000
 MO|     21              -0.820586             -22.329277               2.000000
 MO|     22              -0.820551             -22.328333               2.000000
 MO|     23              -0.820480             -22.326395               2.000000
 MO|     24              -0.820455             -22.325727               2.000000
 MO|     25              -0.820406             -22.324387               2.000000
 MO|     26              -0.820334             -22.322422               2.000000
 MO|     27              -0.820318             -22.321998               2.000000
 MO|     28              -0.820283             -22.321029               2.000000
 MO|     29              -0.340696              -9.270798               2.000000
 MO|     30              -0.340488              -9.265159               2.000000
 MO|     31              -0.339935              -9.250100               2.000000
 MO|     32              -0.339676              -9.243063               2.000000
 MO|     33              -0.339563              -9.239974               2.000000
 MO|     34              -0.339449              -9.236868               2.000000
 MO|     35              -0.339366              -9.234615               2.000000
 MO|     36              -0.339302              -9.232889               2.000000
 MO|     37              -0.339218              -9.230578               2.000000
 MO|     38              -0.339183              -9.229628               2.000000
 MO|     39              -0.339019              -9.225186               2.000000
 MO|     40              -0.338999              -9.224624               2.000000
 MO|     41              -0.338941              -9.223049               2.000000
 MO|     42              -0.338797              -9.219141               2.000000
 MO|     43              -0.338756              -9.218007               2.000000
 MO|     44              -0.338651              -9.215167               2.000000
 MO|     45              -0.338632              -9.214635               2.000000
 MO|     46              -0.338564              -9.212794               2.000000
 MO|     47              -0.338397              -9.208247               2.000000
 MO|     48              -0.338327              -9.206343               2.000000
 MO|     49              -0.338229              -9.203692               2.000000
 MO|     50              -0.338209              -9.203135               2.000000
 MO|     51              -0.338062              -9.199147               2.000000
 MO|     52              -0.338038              -9.198474               2.000000
 MO|     53              -0.337850              -9.193356               2.000000
 MO|     54              -0.337832              -9.192868               2.000000
 MO|     55              -0.337680              -9.188743               2.000000
 MO|     56              -0.337629              -9.187364               2.000000
 MO|     57              -0.337487              -9.183478               2.000000
 MO|     58              -0.337473              -9.183110               2.000000
 MO|     59              -0.337355              -9.179898               2.000000
 MO|     60              -0.337306              -9.178561               2.000000
 MO|     61              -0.337271              -9.177602               2.000000
 MO|     62              -0.337224              -9.176325               2.000000
 MO|     63              -0.337185              -9.175280               2.000000
 MO|     64              -0.337147              -9.174232               2.000000
 MO|     65              -0.337043              -9.171401               2.000000
 MO|     66              -0.337023              -9.170862               2.000000
 MO|     67              -0.336910              -9.167787               2.000000
 MO|     68              -0.336892              -9.167286               2.000000
 MO|     69              -0.336808              -9.165006               2.000000
 MO|     70              -0.336704              -9.162178               2.000000
 MO|     71              -0.336694              -9.161897               2.000000
 MO|     72              -0.336608              -9.159561               2.000000
 MO|     73              -0.336591              -9.159116               2.000000
 MO|     74              -0.336556              -9.158151               2.000000
 MO|     75              -0.336537              -9.157628               2.000000
 MO|     76              -0.336480              -9.156077               2.000000
 MO|     77              -0.336435              -9.154872               2.000000
 MO|     78              -0.336359              -9.152781               2.000000
 MO|     79              -0.336340              -9.152280               2.000000
 MO|     80              -0.336298              -9.151148               2.000000
 MO|     81              -0.336230              -9.149274               2.000000
 MO|     82              -0.336191              -9.148216               2.000000
 MO|     83              -0.336178              -9.147865               2.000000
 MO|     84              -0.336143              -9.146912               2.000000
 MO|     85              -0.336076              -9.145086               2.000000
 MO|     86              -0.336066              -9.144817               2.000000
 MO|     87              -0.336006              -9.143202               2.000000
 MO|     88              -0.336000              -9.143028               2.000000
 MO|     89              -0.335936              -9.141273               2.000000
 MO|     90              -0.335876              -9.139659               2.000000
 MO|     91              -0.335857              -9.139127               2.000000
 MO|     92              -0.335805              -9.137714               2.000000
 MO|     93              -0.335739              -9.135936               2.000000
 MO|     94              -0.335721              -9.135438               2.000000
 MO|     95              -0.335669              -9.134008               2.000000
 MO|     96              -0.335659              -9.133734               2.000000
 MO|     97              -0.335618              -9.132636               2.000000
 MO|     98              -0.335609              -9.132387               2.000000
 MO|     99              -0.335563              -9.131135               2.000000
 MO|    100              -0.335542              -9.130575               2.000000
 MO|    101              -0.335495              -9.129276               2.000000
 MO|    102              -0.335439              -9.127746               2.000000
 MO|    103              -0.335408              -9.126915               2.000000
 MO|    104              -0.335386              -9.126312               2.000000
 MO|    105              -0.335325              -9.124658               2.000000
 MO|    106              -0.335304              -9.124084               2.000000
 MO|    107              -0.335249              -9.122580               2.000000
 MO|    108              -0.335232              -9.122135               2.000000
 MO|    109              -0.335146              -9.119785               2.000000
 MO|    110              -0.335126              -9.119244               2.000000
 MO|    111              -0.335061              -9.117482               2.000000
 MO|    112              -0.334799              -9.110350               2.000000
 MO|    113               0.010296               0.280157               2.000000
 MO|    114               0.013543               0.368518               2.000000
 MO|    115               0.020005               0.544365               2.000000
 MO|    116               0.021933               0.596834               2.000000
 MO|    117               0.029308               0.797521               2.000000
 MO|    118               0.036390               0.990218               2.000000
 MO|    119               0.042878               1.166778               2.000000
 MO|    120               0.044433               1.209095               2.000000
 MO|    121               0.047324               1.287753               2.000000
 MO|    122               0.052313               1.423516               2.000000
 MO|    123               0.054468               1.482140               2.000000
 MO|    124               0.055766               1.517467               2.000000
 MO|    125               0.057679               1.569512               2.000000
 MO|    126               0.061520               1.674051               2.000000
 MO|    127               0.065982               1.795473               0.000000
 MO|    128               0.066501               1.809574               0.000000
 MO|    129               0.067548               1.838082               0.000000
 MO|    130               0.069291               1.885513               0.000000
 MO|    131               0.070603               1.921200               0.000000
 MO|    132               0.072032               1.960086               0.000000
 MO|    133               0.074777               2.034786               0.000000
 MO|    134               0.078129               2.126003               0.000000
 MO|    135               0.081078               2.206235               0.000000
 MO|    136               0.084349               2.295258               0.000000
 MO| Sum:                                                             252.000000
 MO| E(Fermi):            0.062077 a.u.          1.689198 eV
 MO| Band gap:            0.004462 a.u.          0.121422 eV


 MO| EIGENVALUES AND OCCUPATION NUMBERS FOR K POINT 3
 MO|
 MO|  Index      Eigenvalue [a.u.]        Eigenvalue [eV]             Occupation
 MO|      1              -0.821759             -22.361210               2.000000
 MO|      2              -0.821744             -22.360794               2.000000
 MO|      3              -0.821477             -22.353530               2.000000
 MO|      4              -0.821457             -22.352992               2.000000
 MO|      5              -0.821300             -22.348707               2.000000
 MO|      6              -0.821267             -22.347816               2.000000
 MO|      7              -0.820995             -22.340417               2.000000
 MO|      8              -0.820959             -22.339430               2.000000
 MO|      9              -0.820942             -22.338978               2.000000
 MO|     10              -0.820928             -22.338584               2.000000
 MO|     11              -0.820912             -22.338141               2.000000
 MO|     12              -0.820899             -22.337796               2.000000
 MO|     13              -0.820875             -22.337158               2.000000
 MO|     14              -0.820873             -22.337080               2.000000
 MO|     15              -0.820842             -22.336259               2.000000
 MO|     16              -0.820831             -22.335958               2.000000
 MO|     17              -0.820798             -22.335044               2.000000
 MO|     18              -0.820763             -22.334110               2.000000
 MO|     19              -0.820648             -22.330955               2.000000
 MO|     20              -0.820607             -22.329849               2.000000
 MO|     21              -0.820586             -22.329274               2.000000
 MO|     22              -0.820551             -22.328320               2.000000
 MO|     23              -0.820481             -22.326411               2.000000
 MO|     24              -0.820456             -22.325733               2.000000
 MO|     25              -0.820406             -22.324387               2.000000
 MO|     26              -0.820334             -22.322426               2.000000
 MO|     27              -0.820318             -22.321999               2.000000
 MO|     28              -0.820283             -22.321037               2.000000
 MO|     29              -0.340685              -9.270514               2.000000
 MO|     30              -0.340468              -9.264601               2.000000
 MO|     31              -0.339865              -9.248211               2.000000
 MO|     32              -0.339663              -9.242710               2.000000
 MO|     33              -0.339456              -9.237063               2.000000
 MO|     34              -0.339419              -9.236051               2.000000
 MO|     35              -0.339388              -9.235219               2.000000
 MO|     36              -0.339304              -9.232931               2.000000
 MO|     37              -0.339213              -9.230443               2.000000
 MO|     38              -0.339129              -9.228180               2.000000
 MO|     39              -0.339029              -9.225447               2.000000
 MO|     40              -0.338905              -9.222061               2.000000
 MO|     41              -0.338872              -9.221182               2.000000
 MO|     42              -0.338830              -9.220040               2.000000
 MO|     43              -0.338780              -9.218665               2.000000
 MO|     44              -0.338679              -9.215925               2.000000
 MO|     45              -0.338669              -9.215665               2.000000
 MO|     46              -0.338601              -9.213795               2.000000
 MO|     47              -0.338436              -9.209313               2.000000
 MO|     48              -0.338419              -9.208862               2.000000
 MO|     49              -0.338309              -9.205864               2.000000
 MO|     50              -0.338178              -9.202286               2.000000
 MO|     51              -0.338117              -9.200631               2.000000
 MO|     52              -0.337993              -9.197254               2.000000
 MO|     53              -0.337976              -9.196803               2.000000
 MO|     54              -0.337847              -9.193272               2.000000
 MO|     55              -0.337759              -9.190891               2.000000
 MO|     56              -0.337646              -9.187813               2.000000
 MO|     57              -0.337608              -9.186774               2.000000
 MO|     58              -0.337516              -9.184283               2.000000
 MO|     59              -0.337503              -9.183914               2.000000
 MO|     60              -0.337389              -9.180820               2.000000
 MO|     61              -0.337271              -9.177602               2.000000
 MO|     62              -0.337231              -9.176531               2.000000
 MO|     63              -0.337065              -9.171993               2.000000
 MO|     64              -0.337011              -9.170539               2.000000
 MO|     65              -0.336979              -9.169657               2.000000
 MO|     66              -0.336961              -9.169174               2.000000
 MO|     67              -0.336901              -9.167548               2.000000
 MO|     68              -0.336834              -9.165725               2.000000
 MO|     69              -0.336793              -9.164610               2.000000
 MO|     70              -0.336718              -9.162559               2.000000
 MO|     71              -0.336646              -9.160608               2.000000
 MO|     72              -0.336634              -9.160270               2.000000
 MO|     73              -0.336602              -9.159396               2.000000
 MO|     74              -0.336542              -9.157763               2.000000
 MO|     75              -0.336533              -9.157524               2.000000
 MO|     76              -0.336513              -9.156975               2.000000
 MO|     77              -0.336371              -9.153134               2.000000
 MO|     78              -0.336361              -9.152862               2.000000
 MO|     79              -0.336303              -9.151261               2.000000
 MO|     80              -0.336271              -9.150406               2.000000
 MO|     81              -0.336210              -9.148750               2.000000
 MO|     82              -0.336200              -9.148455               2.000000
 MO|     83              -0.336188              -9.148153               2.000000
 MO|     84              -0.336140              -9.146843               2.000000
 MO|     85              -0.336049              -9.144359               2.000000
 MO|     86              -0.336034              -9.143953               2.000000
 MO|     87              -0.336012              -9.143353               2.000000
 MO|     88              -0.335983              -9.142564               2.000000
 MO|     89              -0.335965              -9.142064               2.000000
 MO|     90              -0.335932              -9.141162               2.000000
 MO|     91              -0.335905              -9.140444               2.000000
 MO|     92              -0.335842              -9.138734               2.000000
 MO|     93              -0.335792              -9.137355               2.000000
 MO|     94              -0.335752              -9.136279               2.000000
 MO|     95              -0.335709              -9.135104               2.000000
 MO|     96              -0.335703              -9.134936               2.000000
[...]
 MO|    131               0.077985               2.122084               0.000000
 MO|    132               0.078887               2.146623               0.000000
 MO|    133               0.082481               2.244424               0.000000
 MO|    134               0.083836               2.281295               0.000000
 MO|    135               0.085176               2.317754               0.000000
 MO|    136               0.085248               2.319708               0.000000
 MO| Sum:                                                             256.000000
 MO| E(Fermi):            0.062077 a.u.          1.689198 eV
 MO| Band gap:            0.001211 a.u.          0.032960 eV


 !-----------------------------------------------------------------------------!
                     Mulliken Population Analysis

 #  Atom  Element  Kind  Atomic population                           Net charge
       1     Cs       1          9.019103                             -0.019103
       2     Cs       1          9.006683                             -0.006683
       3     Cs       1          8.995361                              0.004639
       4     Cs       1          8.932185                              0.067815
       5     Cs       1          9.031699                             -0.031699
       6     Cs       1          8.926825                              0.073175
       7     Cs       1          8.942536                              0.057464
       8     Cs       1          8.998628                              0.001372
       9     Cs       1          8.943371                              0.056629
      10     Cs       1          9.038249                             -0.038249
      11     Cs       1          8.944222                              0.055778
      12     Cs       1          9.040257                             -0.040257
      13     Cs       1          9.004212                             -0.004212
      14     Cs       1          9.087818                             -0.087818
      15     Cs       1          8.940386                              0.059614
      16     Cs       1          8.940620                              0.059380
      17     Cs       1          9.017347                             -0.017347
      18     Cs       1          8.936022                              0.063978
      19     Cs       1          9.055684                             -0.055684
      20     Cs       1          9.055448                             -0.055448
      21     Cs       1          9.030247                             -0.030247
      22     Cs       1          8.929597                              0.070403
      23     Cs       1          8.981916                              0.018084
      24     Cs       1          8.983637                              0.016363
      25     Cs       1          8.944052                              0.055948
      26     Cs       1          9.090109                             -0.090109
      27     Cs       1          9.092543                             -0.092543
      28     Cs       1          9.091241                             -0.091241
 # Total charge                            252.000000                 -0.000000

 !-----------------------------------------------------------------------------!

 !-----------------------------------------------------------------------------!
                           Hirshfeld Charges

  #Atom  Element  Kind  Ref Charge     Population                    Net charge
      1       Cs     1       9.000          8.997                         0.003
      2       Cs     1       9.000          8.999                         0.001
      3       Cs     1       9.000          9.001                        -0.001
      4       Cs     1       9.000          9.003                        -0.003
      5       Cs     1       9.000          8.996                         0.004
      6       Cs     1       9.000          8.999                         0.001
      7       Cs     1       9.000          9.000                        -0.000
      8       Cs     1       9.000          9.001                        -0.001
      9       Cs     1       9.000          9.000                         0.000
     10       Cs     1       9.000          9.004                        -0.004
     11       Cs     1       9.000          9.000                         0.000
     12       Cs     1       9.000          9.004                        -0.004
     13       Cs     1       9.000          8.999                         0.001
     14       Cs     1       9.000          9.005                        -0.005
     15       Cs     1       9.000          8.993                         0.007
     16       Cs     1       9.000          8.993                         0.007
     17       Cs     1       9.000          8.997                         0.003
     18       Cs     1       9.000          9.003                        -0.003
     19       Cs     1       9.000          9.002                        -0.002
     20       Cs     1       9.000          9.002                        -0.002
     21       Cs     1       9.000          8.996                         0.004
     22       Cs     1       9.000          9.000                         0.000
     23       Cs     1       9.000          8.997                         0.003
     24       Cs     1       9.000          8.997                         0.003
     25       Cs     1       9.000          9.000                        -0.000
     26       Cs     1       9.000          9.003                        -0.003
     27       Cs     1       9.000          9.003                        -0.003
     28       Cs     1       9.000          9.005                        -0.005

  Total Charge                                                           -0.000
 !-----------------------------------------------------------------------------!

 ENERGY| Total FORCE_EVAL ( QS ) energy [a.u.]:             -563.691502410074918

 -------------------------------------------------------------------------------
 -                                                                             -
 -                                DBCSR STATISTICS                             -
 -                                                                             -
 -------------------------------------------------------------------------------
 COUNTER                                    TOTAL       BLAS       SMM       ACC
 flops inhomo. stacks                           0       0.0%      0.0%      0.0%
 flops total                         0.000000E+00       0.0%      0.0%      0.0%
 flops max/rank                      0.000000E+00       0.0%      0.0%      0.0%
 matmuls inhomo. stacks                         0       0.0%      0.0%      0.0%
 matmuls total                                  0       0.0%      0.0%      0.0%
 number of processed stacks                     0       0.0%      0.0%      0.0%
 average stack size                                     0.0       0.0       0.0
 marketing flops                     0.000000E+00
 -------------------------------------------------------------------------------
 -                                                                             -
 -                      DBCSR MESSAGE PASSING PERFORMANCE                      -
 -                                                                             -
 -------------------------------------------------------------------------------
 ROUTINE             CALLS      AVE VOLUME [Bytes]
 MP_Bcast                1                     12.
 MP_Allreduce          468                      9.
 MP_Alltoall         29536                  45089.
 -------------------------------------------------------------------------------

 -------------------------------------------------------------------------------
 -                                                                             -
 -                                GRID STATISTICS                              -
 -                                                                             -
 -------------------------------------------------------------------------------
 LP    KERNEL             BACKEND                              COUNT     PERCENT
 4     collocate general  REF                                  78975      55.52%
 4     integrate general  REF                                  63180      44.42%
 0     collocate general  REF                                     56       0.04%
 0     integrate general  REF                                     28       0.02%
 -------------------------------------------------------------------------------

 MEMORY| Estimated peak process memory [MiB]                                 588

 -------------------------------------------------------------------------------
 ----                             MULTIGRID INFO                            ----
 -------------------------------------------------------------------------------
 count for grid        1:          17560          cutoff [a.u.]          100.00
 count for grid        2:          42175          cutoff [a.u.]           33.33
 count for grid        3:          14295          cutoff [a.u.]           11.11
 count for grid        4:           5701          cutoff [a.u.]            3.70
 total gridlevel count  :          79731

 -------------------------------------------------------------------------------
 -                                                                             -
 -                         MESSAGE PASSING PERFORMANCE                         -
 -                                                                             -
 -------------------------------------------------------------------------------

 ROUTINE             CALLS      AVE VOLUME [Bytes]
 MP_Group                5
 MP_Bcast            12735                  32357.
 MP_Allreduce          580                   1244.
 MP_Sync                 4
 MP_Alltoall            77                9383799.
 MP_ISendRecv          429                 635372.
 MP_Wait             10989
 MP_ISend            14784                  16475.
 MP_IRecv            14784                  16475.
 MP_Recv               616                 100352.
 -------------------------------------------------------------------------------


 -------------------------------------------------------------------------------
 -                                                                             -
 -                           R E F E R E N C E S                               -
 -                                                                             -
 -------------------------------------------------------------------------------
 
 CP2K version 8.2, the CP2K developers group (2021).
 CP2K is freely available from https://www.cp2k.org/ .

 Kuehne,Thomas D.; Iannuzzi,Marcella; Del Ben,Mauro;
 Rybkin,Vladimir V.; Seewald,Patrick; Stein,Frederick; Laino,Teodoro;
 Khaliullin,Rustam Z.; Schuett,Ole; Schiffmann,Florian; Golze,Dorothea;
 Wilhelm,Jan; Chulkov,Sergey; Bani-Hashemian,Mohammad Hossein;
 Weber,Valery; Borstnik,Urban; Taillefumier,Mathieu;
 Jakobovits,Alice Shoshana; Lazzaro,Alfio; Pabst,Hans; Mueller,Tiziano;
 Schade,Robert; Guidon,Manuel; Andermatt,Samuel; Holmberg,Nico;
 Schenter,Gregory K.; Hehn,Anna; Bussy,Augustin; Belleflamme,Fabian;
 Tabacchi,Gloria; Gloess,Andreas; Lass,Michael; Bethune,Iain;
 Mundy,Christopher J.; Plessl,Christian; Watkins,Matt;
 VandeVondele,Joost; Krack,Matthias; Hutter,Juerg. 
 The Journal of Chemical Physics, 152 (19), (2020). 
 CP2K: An electronic structure and molecular dynamics software package -
 Quickstep: Efficient and accurate electronic structure calculations.
 https://doi.org/10.1063/5.0007045

 Togo, Atsushi; Tanaka, Isao. arXiv, 1808.01590 (2018). 
 Spglib : a software library for crystal symmetry search.
 https://doi.org/xxx

 Schuett, Ole; Messmer, Peter; Hutter, Juerg; VandeVondele, Joost. 
 Electronic Structure Calculations on Graphics Processing Units, John
 Wiley & Sons, Ltd, 173-190 (2016). 
 GPU-Accelerated Sparse Matrix-Matrix Multiplication for
 Linear Scaling Density Functional Theory.
 https://doi.org/10.1002/9781118670712.ch8

 Heinecke, A; Henry, G; Hutchinson, M; Pabst, H. 
 Proceedings of Intl. Supercomputing Conference, 981-991 (2016). 
 LIBXSMM: Accelerating Small Matrix Multiplications
 by Runtime Code Generation.
 https://doi.org/10.1109/SC.2016.83

 Borstnik, U; VandeVondele, J; Weber, V; Hutter, J. 
 PARALLEL COMPUTING, 40 (5-6), 47-58 (2014). 
 Sparse matrix multiplication: The distributed block-compressed sparse
 row library.
 https://doi.org/10.1016/j.parco.2014.03.012

 Hutter, J; Iannuzzi, M; Schiffmann, F; VandeVondele, J. 
 WIREs Comput Mol Sci., 4 (1), 15-25 (2014). 
 CP2K: atomistic simulations of condensed matter systems.
 https://doi.org/10.1002/wcms.1159

 VandeVondele, J; Hutter, J. 
 JOURNAL OF CHEMICAL PHYSICS, 127 (11), 114105 (2007). 
 Gaussian basis sets for accurate calculations on molecular systems in
 gas and condensed phases.
 https://doi.org/10.1063/1.2770708

 Krack, M. 
 THEORETICAL CHEMISTRY ACCOUNTS, 114 (1-3), 145-152 (2005). 
 Pseudopotentials for H to Kr optimized for gradient-corrected
 exchange-correlation functionals.
 https://doi.org/10.1007/s00214-005-0655-y

 VandeVondele, J; Krack, M; Mohamed, F; Parrinello, M; Chassaing, T;
 Hutter, J. COMPUTER PHYSICS COMMUNICATIONS, 167 (2), 103-128 (2005). 
 QUICKSTEP: Fast and accurate density functional calculations using a
 mixed Gaussian and plane waves approach.
 https://doi.org/10.1016/j.cpc.2004.12.014

 Frigo, M; Johnson, SG. 
 PROCEEDINGS OF THE IEEE, 93 (2), 216-231 (2005). 
 The design and implementation of FFTW3.
 https://doi.org/10.1109/JPROC.2004.840301

 Hartwigsen, C; Goedecker, S; Hutter, J. 
 PHYSICAL REVIEW B, 58 (7), 3641-3662 (1998). 
 Relativistic separable dual-space Gaussian pseudopotentials from H to Rn.
 https://doi.org/10.1103/PhysRevB.58.3641

 Lippert, G; Hutter, J; Parrinello, M. 
 MOLECULAR PHYSICS, 92 (3), 477-487 (1997). 
 A hybrid Gaussian and plane wave density functional scheme.
 https://doi.org/10.1080/002689797170220

 Perdew, JP; Burke, K; Ernzerhof, M. 
 PHYSICAL REVIEW LETTERS, 77 (18), 3865-3868 (1996). 
 Generalized gradient approximation made simple.
 https://doi.org/10.1103/PhysRevLett.77.3865

 Goedecker, S; Teter, M; Hutter, J. 
 PHYSICAL REVIEW B, 54 (3), 1703-1710 (1996). 
 Separable dual-space Gaussian pseudopotentials.
 https://doi.org/10.1103/PhysRevB.54.1703


 -------------------------------------------------------------------------------
 -                                                                             -
 -                                T I M I N G                                  -
 -                                                                             -
 -------------------------------------------------------------------------------
 SUBROUTINE                       CALLS  ASD         SELF TIME        TOTAL TIME
                                MAXIMUM       AVERAGE  MAXIMUM  AVERAGE  MAXIMUM
 CP2K                                 1  1.0    0.025    0.027   31.879   31.880
 qs_energies                          1  2.0    0.003    0.003   31.615   31.615
 scf_env_do_scf                       1  3.0    0.000    0.000   30.309   30.919
 scf_env_do_scf_inner_loop            4  4.0    0.002    0.003   30.309   30.919
 qs_scf_new_mos_kp                    4  5.0    0.000    0.001   27.315   27.416
 do_general_diag_kp                   4  6.0    0.011    0.012   27.315   27.416
 cp_cfm_geeig                       352  7.0    0.006    0.007   22.827   22.850
 cp_cfm_heevd                       352  8.0   15.685   15.969   15.685   15.969
 cp_cfm_triangular_multiply        1056  8.0    5.034    5.309    5.034    5.309
 qs_ks_update_qs_env                  4  5.0    0.000    0.000    1.687    1.831
 rebuild_ks_matrix                    4  6.0    0.000    0.000    1.662    1.806
 qs_ks_build_kohn_sham_matrix         4  7.0    0.001    0.002    1.662    1.806
 qs_rho_update_rho                    5  5.0    0.000    0.000    1.221    1.223
 calculate_rho_elec                   5  6.0    0.007    0.008    1.221    1.223
 cp_cfm_cholesky_decompose          352  8.0    1.122    1.213    1.122    1.213
 copy_dbcsr_to_fm                  1464  7.0    0.016    0.017    1.104    1.164
 dbcsr_complete_redistribute       2168  8.3    0.265    0.279    1.112    1.151
 dbcsr_desymmetrize_deep           2872  7.5    0.139    0.174    0.916    1.083
 pw_transfer                         85  9.4    0.004    0.004    1.020    1.042
 fft_wrap_pw1pw2                     77 10.4    0.001    0.001    1.008    1.031
 fft_wrap_pw1pw2_100                 50 11.4    0.059    0.072    0.947    0.976
 kpoint_density_transform             4  7.0    0.003    0.003    0.954    0.955
 kpoint_density_matrices              4  7.0    0.008    0.009    0.918    0.919
 cp_gemm                           1408  8.0    0.002    0.003    0.905    0.908
 cp_gemm_fm_gemm                   1408  9.0    0.001    0.001    0.903    0.906
 cp_fm_gemm                        1408 10.0    0.902    0.905    0.902    0.905
 fft3d_ps                            77 12.4    0.447    0.489    0.798    0.850
 sum_up_and_integrate                 4  8.0    0.003    0.005    0.703    0.844
 integrate_v_rspace                   4  9.0    0.001    0.001    0.700    0.841
 qs_vxc_create                        4  8.0    0.000    0.001    0.825    0.833
 xc_vxc_pw_create                     4  9.0    0.012    0.012    0.825    0.833
 grid_collocate_task_list             5  7.0    0.675    0.830    0.675    0.830
 mp_alltoall_i22                   5040  8.8    0.603    0.823    0.603    0.823
 scf_post_calculation_gpw             1  3.0    0.000    0.000    0.746    0.801
 write_available_results              1  4.0    0.000    0.000    0.745    0.801
 write_mo_free_results                1  5.0    0.002    0.004    0.740    0.800
 write_kpoints_restart                4  5.0    0.056    0.666    0.188    0.797
 mp_sum_dm                            3  7.0    0.663    0.728    0.663    0.728
 mulliken_population_analysis         1  6.0    0.002    0.004    0.664    0.725
 cp_cfm_triangular_invert           352  8.0    0.676    0.706    0.676    0.706
 density_rs2pw                        5  7.0    0.000    0.000    0.529    0.674
 -------------------------------------------------------------------------------

 The number of warnings for this run is : 1
 
 -------------------------------------------------------------------------------
  **** **** ******  **  PROGRAM ENDED AT                 2021-06-04 07:43:48.196
 ***** ** ***  *** **   PROGRAM RAN ON                                   mpcl036
 **    ****   ******    PROGRAM RAN BY                                  pubo1141
 ***** **    ** ** **   PROGRAM PROCESS ID                                  4026
  **** **  *******  **  PROGRAM STOPPED IN /user/pubo1141/simulations/aiida_test
                                           s/cp2k_8.2/eigenvalues_changing_chara
                                           cter_medium
[1622785428.506198] [mpcl036:4032 :0]          mpool.c:38   UCX  WARN  object 0xfc6b800 was not returned to mpool ucp_requests
[1622785428.509657] [mpcl036:4036 :0]          mpool.c:38   UCX  WARN  object 0x29e4de40 was not returned to mpool ucp_requests
[1622785428.507451] [mpcl036:4035 :0]          mpool.c:38   UCX  WARN  object 0x2b37ac40 was not returned to mpool ucp_requests
[1622785428.512026] [mpcl036:4034 :0]          mpool.c:38   UCX  WARN  object 0xfc66780 was not returned to mpool ucp_requests
[1622785428.516979] [mpcl036:4033 :0]          mpool.c:38   UCX  WARN  object 0xfc6be40 was not returned to mpool ucp_requests
[1622785428.509589] [mpcl036:4037 :0]          mpool.c:38   UCX  WARN  object 0x29af1900 was not returned to mpool ucp_requests
