 DBCSR| CPU Multiplication driver                                           XSMM (U)
 DBCSR| Multrec recursion limit                                              512 (U)
 DBCSR| Multiplication stack size                                           1000 (D)
 DBCSR| Maximum elements for images                                    UNLIMITED (U)
 DBCSR| Multiplicative factor virtual images                                   1 (U)
 DBCSR| Use multiplication densification                                       T (D)
 DBCSR| Multiplication size stacks                                             3 (U)
 DBCSR| Use memory pool for CPU allocation                                     F (U)
 DBCSR| Number of 3D layers                                               SINGLE (U)
 DBCSR| Use MPI memory allocation                                              F (U)
 DBCSR| Use RMA algorithm                                                      F (U)
 DBCSR| Use Communication thread                                               T (U)
 DBCSR| Communication thread load                                             83 (D)
 DBCSR| MPI: My process id                                                     0
 DBCSR| MPI: Number of processes                                              48
 DBCSR| OMP: Current number of threads                                         2
 DBCSR| OMP: Max number of threads                                             2
 DBCSR| Split modifier for TAS multiplication algorithm                  1.0E+00 (U)


  **** **** ******  **  PROGRAM STARTED AT               2025-02-11 12:17:24.916
 ***** ** ***  *** **   PROGRAM STARTED ON                                 c0272
 **    ****   ******    PROGRAM STARTED BY                                u12591
 ***** **    ** ** **   PROGRAM PROCESS ID                                 26418
  **** **  *******  **  PROGRAM STARTED IN /mnt/lustre-grete/usr/u12591/cp2k_par
                                           ser_tests/cp2k-2025.1/unconverged_scf
                                           _medium

 CP2K| version string:                                       CP2K version 2025.1
 CP2K| source code revision number:                                  git:9635df4
 CP2K| cp2kflags: omp libint fftw3 libxc libgrpp parallel scalapack mpi_f08 xsmm
 CP2K|             spglib libdftd4 libvori libbqb hdf5
 CP2K| is freely available from                            https://www.cp2k.org/
 CP2K| Program compiled at                          Tue Jan  7 11:11:50 CET 2025
 CP2K| Program compiled on                                              glogin11
 CP2K| Program compiled for                                                local
 CP2K| Data directory path    /mnt/lustre-grete/usr/u12591/software/cp2k/cp2k-20
 CP2K| Input file name                                                 aiida.inp

 GLOBAL| Force Environment number                                              1
 GLOBAL| Basis set file name                                        BASIS_MOLOPT
 GLOBAL| Potential file name                                      GTH_POTENTIALS
 GLOBAL| MM Potential file name                                     MM_POTENTIAL
 GLOBAL| Coordinate file name                                      __STD_INPUT__
 GLOBAL| Method name                                                        CP2K
 GLOBAL| Project name                                                      aiida
 GLOBAL| Run type                                                             MD
 GLOBAL| FFT library                                                       FFTW3
 GLOBAL| Diagonalization library                                       ScaLAPACK
 GLOBAL| DGEMM library                                                      BLAS
 GLOBAL| Orthonormality check for eigenvectors                          DISABLED
 GLOBAL| Matrix multiplication library                                 ScaLAPACK
 GLOBAL| All-to-all communication in single precision                          F
 GLOBAL| FFTs using library dependent lengths                                  F
 GLOBAL| Grid backend                                                       AUTO
 GLOBAL| Global print level                                               MEDIUM
 GLOBAL| MPI I/O enabled                                                       T
 GLOBAL| Total number of message passing processes                            48
 GLOBAL| Number of threads for this process                                    2
 GLOBAL| This output is from process                                           0
 GLOBAL| OpenMP stack size per thread (OMP_STACKSIZE)                    default
 GLOBAL| CPU model name                           Intel(R) Xeon(R) Platinum 8468
 GLOBAL| CPUID                                                              1003

 MEMORY| system memory details [Kb]
 MEMORY|                        rank 0           min           max       average
 MEMORY| MemTotal            527928700     527928700     527928700     527928700
 MEMORY| MemFree             514813788     514813788     514813788     514813788
 MEMORY| Buffers                 13408         13408         13408         13408
 MEMORY| Cached                4447992       4447992       4447992       4447992
 MEMORY| Slab                  1293696       1293696       1293696       1293696
 MEMORY| SReclaimable           221056        221056        221056        221056
 MEMORY| MemLikelyFree       519496244     519496244     519496244     519496244


 *** Fundamental physical constants (SI units) ***

 *** Literature: B. J. Mohr and B. N. Taylor,
 ***             CODATA recommended values of the fundamental physical
 ***             constants: 2006, Web Version 5.1
 ***             http://physics.nist.gov/constants

 Speed of light in vacuum [m/s]                             2.99792458000000E+08
 Magnetic constant or permeability of vacuum [N/A**2]       1.25663706143592E-06
 Electric constant or permittivity of vacuum [F/m]          8.85418781762039E-12
 Planck constant (h) [J*s]                                  6.62606896000000E-34
 Planck constant (h-bar) [J*s]                              1.05457162825177E-34
 Elementary charge [C]                                      1.60217648700000E-19
 Electron mass [kg]                                         9.10938215000000E-31
 Electron g factor [ ]                                     -2.00231930436220E+00
 Proton mass [kg]                                           1.67262163700000E-27
 Fine-structure constant                                    7.29735253760000E-03
 Rydberg constant [1/m]                                     1.09737315685270E+07
 Avogadro constant [1/mol]                                  6.02214179000000E+23
 Boltzmann constant [J/K]                                   1.38065040000000E-23
 Atomic mass unit [kg]                                      1.66053878200000E-27
 Bohr radius [m]                                            5.29177208590000E-11

 *** Conversion factors ***

 [u] -> [a.u.]                                              1.82288848426455E+03
 [Angstrom] -> [Bohr] = [a.u.]                              1.88972613288564E+00
 [a.u.] = [Bohr] -> [Angstrom]                              5.29177208590000E-01
 [a.u.] -> [s]                                              2.41888432650478E-17
 [a.u.] -> [fs]                                             2.41888432650478E-02
 [a.u.] -> [J]                                              4.35974393937059E-18
 [a.u.] -> [N]                                              8.23872205491840E-08
 [a.u.] -> [K]                                              3.15774647902944E+05
 [a.u.] -> [kJ/mol]                                         2.62549961709828E+03
 [a.u.] -> [kcal/mol]                                       6.27509468713739E+02
 [a.u.] -> [Pa]                                             2.94210107994716E+13
 [a.u.] -> [bar]                                            2.94210107994716E+08
 [a.u.] -> [atm]                                            2.90362800883016E+08
 [a.u.] -> [eV]                                             2.72113838565563E+01
 [a.u.] -> [Hz]                                             6.57968392072181E+15
 [a.u.] -> [1/cm] (wave numbers)                            2.19474631370540E+05
 [a.u./Bohr**2] -> [1/cm]                                   5.14048714338585E+03
 

 CELL_TOP| Volume [angstrom^3]:                                      1915.864488
 CELL_TOP| Vector a [angstrom    12.420     0.000     0.000   |a| =    12.420000
 CELL_TOP| Vector b [angstrom     0.000    12.420     0.000   |b| =    12.420000
 CELL_TOP| Vector c [angstrom     0.000     0.000    12.420   |c| =    12.420000
 CELL_TOP| Angle (b,c), alpha [degree]:                                90.000000
 CELL_TOP| Angle (a,c), beta  [degree]:                                90.000000
 CELL_TOP| Angle (a,b), gamma [degree]:                                90.000000
 CELL_TOP| Numerically orthorhombic:                                         YES
 CELL_TOP| Periodicity                                                       XYZ

 GENERATE|  Preliminary Number of Bonds generated:                             0
 GENERATE|  Achieved consistency in connectivity generation.

 CELL| Volume [angstrom^3]:                                          1915.864488
 CELL| Vector a [angstrom]:      12.420     0.000     0.000   |a| =    12.420000
 CELL| Vector b [angstrom]:       0.000    12.420     0.000   |b| =    12.420000
 CELL| Vector c [angstrom]:       0.000     0.000    12.420   |c| =    12.420000
 CELL| Angle (b,c), alpha [degree]:                                    90.000000
 CELL| Angle (a,c), beta  [degree]:                                    90.000000
 CELL| Angle (a,b), gamma [degree]:                                    90.000000
 CELL| Numerically orthorhombic:                                             YES
 CELL| Periodicity                                                           XYZ

 CELL_REF| Volume [angstrom^3]:                                      1915.864488
 CELL_REF| Vector a [angstrom    12.420     0.000     0.000   |a| =    12.420000
 CELL_REF| Vector b [angstrom     0.000    12.420     0.000   |b| =    12.420000
 CELL_REF| Vector c [angstrom     0.000     0.000    12.420   |c| =    12.420000
 CELL_REF| Angle (b,c), alpha [degree]:                                90.000000
 CELL_REF| Angle (a,c), beta  [degree]:                                90.000000
 CELL_REF| Angle (a,b), gamma [degree]:                                90.000000
 CELL_REF| Numerically orthorhombic:                                         YES
 CELL_REF| Periodicity                                                       XYZ

 *******************************************************************************
 *******************************************************************************
 **                                                                           **
 **     #####                         ##              ##                      **
 **    ##   ##            ##          ##              ##                      **
 **   ##     ##                       ##            ######                    **
 **   ##     ##  ##   ##  ##   #####  ##  ##   ####   ##    #####    #####    **
 **   ##     ##  ##   ##  ##  ##      ## ##   ##      ##   ##   ##  ##   ##   **
 **   ##  ## ##  ##   ##  ##  ##      ####     ###    ##   ######   ######    **
 **    ##  ###   ##   ##  ##  ##      ## ##      ##   ##   ##       ##        **
 **     #######   #####   ##   #####  ##  ##  ####    ##    #####   ##        **
 **           ##                                                    ##        **
 **                                                                           **
 **                                                ... make the atoms dance   **
 **                                                                           **
 **            Copyright (C) by CP2K developers group (2000-2025)             **
 **                      J. Chem. Phys. 152, 194103 (2020)                    **
 **                                                                           **
 *******************************************************************************

 DFT| Spin restricted Kohn-Sham (RKS) calculation                            RKS
 DFT| Multiplicity                                                             1
 DFT| Number of spin states                                                    1
 DFT| Charge                                                                   0
 DFT| Self-interaction correction (SIC)                                       NO
 DFT| Cutoffs: density                                              1.000000E-10
 DFT|          gradient                                             1.000000E-10
 DFT|          tau                                                  1.000000E-10
 DFT|          cutoff_smoothing_range                               0.000000E+00
 DFT| XC density smoothing                                                  NONE
 DFT| XC derivatives                                                          PW

 FUNCTIONAL| PBE:
 FUNCTIONAL| J.P.Perdew, K.Burke, M.Ernzerhof, Phys. Rev. Letter, vol. 77, n 18,
 FUNCTIONAL|  pp. 3865-3868, (1996) {spin unpolarized}                          

 vdW POTENTIAL|                                                   Pair Potential
 vdW POTENTIAL|          DFT-D3 (Version 3.1)
 vdW POTENTIAL|          Potential Form: S. Grimme et al, JCP 132: 154104 (2010)
 vdW POTENTIAL|          Zero Damping
 vdW POTENTIAL|          Cutoff Radius [Bohr]:                             30.24
 vdW POTENTIAL|          s6 Scaling Factor:                               1.0000
 vdW POTENTIAL|          sr6 Scaling Factor:                              1.2170
 vdW POTENTIAL|          s8 Scaling Factor:                               0.7220
 vdW POTENTIAL|          Cutoff for CN calculation:                   0.1000E-05

 QS| Method:                                                                 GPW
 QS| Density plane wave grid type                        NON-SPHERICAL FULLSPACE
 QS| Number of grid levels:                                                    4
 QS| Density cutoff [a.u.]:                                                200.0
 QS| Multi grid cutoff [a.u.]: 1) grid level                               200.0
 QS|                           2) grid level                                66.7
 QS|                           3) grid level                                22.2
 QS|                           4) grid level                                 7.4
 QS| Grid level progression factor:                                          3.0
 QS| Relative density cutoff [a.u.]:                                        20.0
 QS| Interaction thresholds: eps_pgf_orb:                                1.0E-04
 QS|                         eps_filter_matrix:                          0.0E+00
 QS|                         eps_core_charge:                            1.0E-10
 QS|                         eps_rho_gspace:                             1.0E-08
 QS|                         eps_rho_rspace:                             1.0E-08
 QS|                         eps_gvg_rspace:                             1.0E-04
 QS|                         eps_ppl:                                    1.0E-02
 QS|                         eps_ppnl:                                   1.0E-06


 ATOMIC KIND INFORMATION

  1. Atomic kind: O                                     Number of atoms:      64

     Orbital Basis Set                                        DZVP-MOLOPT-GTH-q6

       Number of orbital shell sets:                                           1
       Number of orbital shells:                                               5
       Number of primitive Cartesian functions:                                7
       Number of Cartesian basis functions:                                   14
       Number of spherical basis functions:                                   13
       Norm type:                                                              2

       Normalised Cartesian orbitals:

                        Set   Shell   Orbital            Exponent    Coefficient

                          1       1    2s               12.015955      -0.284499
                                                         5.108150      -0.322498
                                                         2.048398       0.148191
                                                         0.832382       0.295475
                                                         0.352316       0.150829
                                                         0.142977       0.015788
                                                         0.046761      -0.000019

                          1       2    3s               12.015955       0.725622
                                                         5.108150       0.644384
                                                         2.048398      -0.157350
                                                         0.832382      -0.853528
                                                         0.352316       0.146068
                                                         0.142977       0.153978
                                                         0.046761       0.000658

                          1       3    3px              12.015955       1.192141
                                                         5.108150       1.354170
                                                         2.048398       0.897267
                                                         0.832382       0.408839
                                                         0.352316       0.116648
                                                         0.142977       0.022184
                                                         0.046761       0.000308
                          1       3    3py              12.015955       1.192141
                                                         5.108150       1.354170
                                                         2.048398       0.897267
                                                         0.832382       0.408839
                                                         0.352316       0.116648
                                                         0.142977       0.022184
                                                         0.046761       0.000308
                          1       3    3pz              12.015955       1.192141
                                                         5.108150       1.354170
                                                         2.048398       0.897267
                                                         0.832382       0.408839
                                                         0.352316       0.116648
                                                         0.142977       0.022184
                                                         0.046761       0.000308

                          1       4    4px              12.015955      -1.062381
                                                         5.108150      -1.285791
                                                         2.048398      -0.727000
                                                         0.832382      -0.522764
                                                         0.352316       0.182681
                                                         0.142977       0.087560
                                                         0.046761       0.000981
                          1       4    4py              12.015955      -1.062381
                                                         5.108150      -1.285791
                                                         2.048398      -0.727000
                                                         0.832382      -0.522764
                                                         0.352316       0.182681
                                                         0.142977       0.087560
                                                         0.046761       0.000981
                          1       4    4pz              12.015955      -1.062381
                                                         5.108150      -1.285791
                                                         2.048398      -0.727000
                                                         0.832382      -0.522764
                                                         0.352316       0.182681
                                                         0.142977       0.087560
                                                         0.046761       0.000981

                          1       5    4dx2             12.015955       1.125955
                                                         5.108150       1.160468
                                                         2.048398       0.999335
                                                         0.832382       0.756334
                                                         0.352316       0.048604
                                                         0.142977       0.010378
                                                         0.046761      -0.000027
                          1       5    4dxy             12.015955       1.950212
                                                         5.108150       2.009990
                                                         2.048398       1.730899
                                                         0.832382       1.310009
                                                         0.352316       0.084185
                                                         0.142977       0.017974
                                                         0.046761      -0.000046
                          1       5    4dxz             12.015955       1.950212
                                                         5.108150       2.009990
                                                         2.048398       1.730899
                                                         0.832382       1.310009
                                                         0.352316       0.084185
                                                         0.142977       0.017974
                                                         0.046761      -0.000046
                          1       5    4dy2             12.015955       1.125955
                                                         5.108150       1.160468
                                                         2.048398       0.999335
                                                         0.832382       0.756334
                                                         0.352316       0.048604
                                                         0.142977       0.010378
                                                         0.046761      -0.000027
                          1       5    4dyz             12.015955       1.950212
                                                         5.108150       2.009990
                                                         2.048398       1.730899
                                                         0.832382       1.310009
                                                         0.352316       0.084185
                                                         0.142977       0.017974
                                                         0.046761      -0.000046
                          1       5    4dz2             12.015955       1.125955
                                                         5.108150       1.160468
                                                         2.048398       0.999335
                                                         0.832382       0.756334
                                                         0.352316       0.048604
                                                         0.142977       0.010378
                                                         0.046761      -0.000027

       Atomic covalent radius [Angstrom]:                                  0.730

       Atomic van der Waals radius [Angstrom]:                             1.520

     GTH Potential information for                                    GTH-PBE-q6

       Description:                       Goedecker-Teter-Hutter pseudopotential
                                           Goedecker et al., PRB 54, 1703 (1996)
                                          Hartwigsen et al., PRB 58, 3641 (1998)
                                                      Krack, TCA 114, 145 (2005)

       Gaussian exponent of the core charge distribution:               8.360253
       Electronic configuration (s p d ...):                               2   4

       Parameters of the local part of the GTH pseudopotential:

                          rloc        C1          C2          C3          C4
                        0.244554  -16.667215    2.487311

       Parameters of the non-local part of the GTH pseudopotential:

                   l      r(l)      h(i,j,l)

                   0    0.220956   18.337458
                   1    0.211332

  2. Atomic kind: H                                     Number of atoms:     128

     Orbital Basis Set                                        DZVP-MOLOPT-GTH-q1

       Number of orbital shell sets:                                           1
       Number of orbital shells:                                               3
       Number of primitive Cartesian functions:                                7
       Number of Cartesian basis functions:                                    5
       Number of spherical basis functions:                                    5
       Norm type:                                                              2

       Normalised Cartesian orbitals:

                        Set   Shell   Orbital            Exponent    Coefficient

                          1       1    2s               11.478000       0.129129
                                                         3.700759       0.177012
                                                         1.446884       0.141285
                                                         0.716815       0.245670
                                                         0.247919       0.094768
                                                         0.066918       0.004062
                                                         0.021708      -0.000053

                          1       2    3s               11.478000      -0.079256
                                                         3.700759      -0.152992
                                                         1.446884       0.015066
                                                         0.716815      -0.331234
                                                         0.247919       0.210690
                                                         0.066918       0.058630
                                                         0.021708      -0.003429

                          1       3    3px              11.478000       0.325290
                                                         3.700759       0.187466
                                                         1.446884       0.443300
                                                         0.716815       0.267738
                                                         0.247919       0.088285
                                                         0.066918       0.019092
                                                         0.021708       0.000629
                          1       3    3py              11.478000       0.325290
                                                         3.700759       0.187466
                                                         1.446884       0.443300
                                                         0.716815       0.267738
                                                         0.247919       0.088285
                                                         0.066918       0.019092
                                                         0.021708       0.000629
                          1       3    3pz              11.478000       0.325290
                                                         3.700759       0.187466
                                                         1.446884       0.443300
                                                         0.716815       0.267738
                                                         0.247919       0.088285
                                                         0.066918       0.019092
                                                         0.021708       0.000629

       Atomic covalent radius [Angstrom]:                                  0.320

       Atomic van der Waals radius [Angstrom]:                             1.090

     GTH Potential information for                                    GTH-PBE-q1

       Description:                       Goedecker-Teter-Hutter pseudopotential
                                           Goedecker et al., PRB 54, 1703 (1996)
                                          Hartwigsen et al., PRB 58, 3641 (1998)
                                                      Krack, TCA 114, 145 (2005)

       Gaussian exponent of the core charge distribution:              12.500000
       Electronic configuration (s p d ...):                                   1

       Parameters of the local part of the GTH pseudopotential:

                          rloc        C1          C2          C3          C4
                        0.200000   -4.178900    0.724463


 MOLECULE KIND INFORMATION


 All atoms are their own molecule, skipping detailed information


 TOTAL NUMBERS AND MAXIMUM NUMBERS

  Total number of            - Atomic kinds:                                   2
                             - Atoms:                                        192
                             - Shell sets:                                   192
                             - Shells:                                       704
                             - Primitive Cartesian functions:               1344
                             - Cartesian basis functions:                   1536
                             - Spherical basis functions:                   1472

  Maximum angular momentum of- Orbital basis functions:                        2
                             - Local part of the GTH pseudopotential:          2
                             - Non-local part of the GTH pseudopotential:      0


 MODULE QUICKSTEP: ATOMIC COORDINATES IN ANGSTROM

   Atom Kind Element         X             Y             Z       Z(eff)     Mass
      1    1 O     8      3.858587     -4.753318      5.509197   6.0000  15.9994
      2    2 H     1      4.210995     -5.556871      5.999459   1.0000   1.0079
      3    2 H     1      3.094708     -4.317266      5.913595   1.0000   1.0079
      4    1 O     8     -3.546076      1.745624      4.288021   6.0000  15.9994
      5    2 H     1     -3.357258      0.836994      4.152946   1.0000   1.0079
      6    2 H     1     -3.608914      1.943698      5.269839   1.0000   1.0079
      7    1 O     8      4.569136      2.934327     -7.099972   6.0000  15.9994
      8    2 H     1      3.678596      3.229107     -6.804983   1.0000   1.0079
      9    2 H     1      4.495367      2.784591     -8.045803   1.0000   1.0079
     10    1 O     8     -2.573180     -0.106310     -3.414714   6.0000  15.9994
     11    2 H     1     -2.038669      0.415523     -2.828965   1.0000   1.0079
     12    2 H     1     -1.889161     -0.614820     -3.928063   1.0000   1.0079
     13    1 O     8     -3.762503     -7.710594      5.627998   6.0000  15.9994
     14    2 H     1     -4.634354     -7.419980      5.987479   1.0000   1.0079
     15    2 H     1     -3.852063     -7.634849      4.660781   1.0000   1.0079
     16    1 O     8     -6.713126     -0.075920      2.317684   6.0000  15.9994
     17    2 H     1     -6.041585     -0.456040      3.007998   1.0000   1.0079
     18    2 H     1     -6.258264      0.734307      1.958295   1.0000   1.0079
     19    1 O     8      4.010954     -5.581769     -0.412691   6.0000  15.9994
     20    2 H     1      3.332131     -5.616691      0.307694   1.0000   1.0079
     21    2 H     1      3.905154     -4.753344     -0.836952   1.0000   1.0079
     22    1 O     8     -2.669263     -3.081051     -1.225935   6.0000  15.9994
     23    2 H     1     -3.248632     -2.449171     -1.738693   1.0000   1.0079
     24    2 H     1     -2.191896     -2.598852     -0.576307   1.0000   1.0079
     25    1 O     8      5.457624     -3.168804      3.100260   6.0000  15.9994
     26    2 H     1      4.685499     -3.245800      3.622418   1.0000   1.0079
     27    2 H     1      5.257937     -3.050750      2.131140   1.0000   1.0079
     28    1 O     8      2.007879      3.802589     -6.644120   6.0000  15.9994
     29    2 H     1      1.380904      3.070273     -6.803869   1.0000   1.0079
     30    2 H     1      1.836607      4.066629     -5.709998   1.0000   1.0079
     31    1 O     8      4.060883     -3.892921     -3.059677   6.0000  15.9994
     32    2 H     1      3.233271     -3.720667     -3.695376   1.0000   1.0079
     33    2 H     1      4.336690     -2.982510     -2.984822   1.0000   1.0079
     34    1 O     8      1.977359     -1.844229      1.022567   6.0000  15.9994
     35    2 H     1      1.565064     -2.471360      1.649594   1.0000   1.0079
     36    2 H     1      1.619481     -1.913312      0.065695   1.0000   1.0079
     37    1 O     8      0.733845     -5.743288     -5.010069   6.0000  15.9994
     38    2 H     1      1.479577     -6.329923     -4.818933   1.0000   1.0079
     39    2 H     1      0.449115     -5.709569     -5.947356   1.0000   1.0079
     40    1 O     8     -7.516646     -8.678106     -3.237157   6.0000  15.9994
     41    2 H     1     -7.873766     -9.602722     -3.081415   1.0000   1.0079
     42    2 H     1     -7.132394     -8.578896     -2.346766   1.0000   1.0079
     43    1 O     8      3.008996     -1.620693      5.170452   6.0000  15.9994
     44    2 H     1      3.854786     -1.802286      5.686635   1.0000   1.0079
     45    2 H     1      3.170083     -0.818538      4.610243   1.0000   1.0079
     46    1 O     8     -0.094349      1.863471     -6.686135   6.0000  15.9994
     47    2 H     1      0.238983      1.055233     -6.317038   1.0000   1.0079
     48    2 H     1     -0.053460      1.737047     -7.652783   1.0000   1.0079
     49    1 O     8      1.380300     -3.081547      3.659847   6.0000  15.9994
     50    2 H     1      2.005275     -2.679362      4.316923   1.0000   1.0079
     51    2 H     1      1.097394     -3.966638      3.981340   1.0000   1.0079
     52    1 O     8     -2.327913      2.806079      2.234742   6.0000  15.9994
     53    2 H     1     -1.623045      2.131523      2.186616   1.0000   1.0079
     54    2 H     1     -2.760923      2.581957      3.088951   1.0000   1.0079
     55    1 O     8      0.874513     -0.661119     -5.600405   6.0000  15.9994
     56    2 H     1      1.720402     -0.818966     -6.109861   1.0000   1.0079
     57    2 H     1      1.196412     -0.240506     -4.754906   1.0000   1.0079
     58    1 O     8     -1.186646     -0.716403      0.243785   6.0000  15.9994
     59    2 H     1     -1.134001      0.232571     -0.072616   1.0000   1.0079
     60    2 H     1     -0.933544     -0.785478      1.201134   1.0000   1.0079
     61    1 O     8     -3.886194     -9.012929     -3.131857   6.0000  15.9994
     62    2 H     1     -4.498349     -8.280126     -3.216022   1.0000   1.0079
     63    2 H     1     -2.918386     -8.730140     -3.122451   1.0000   1.0079
     64    1 O     8      4.978441      4.557411      2.160598   6.0000  15.9994
     65    2 H     1      4.574251      4.069025      1.437504   1.0000   1.0079
     66    2 H     1      4.210678      4.907944      2.673609   1.0000   1.0079
     67    1 O     8      4.207481      1.029475     -3.213494   6.0000  15.9994
     68    2 H     1      4.625087      0.852431     -4.064867   1.0000   1.0079
     69    2 H     1      4.422152      0.192039     -2.736436   1.0000   1.0079
     70    1 O     8     -5.210635     -6.346370     -2.680646   6.0000  15.9994
     71    2 H     1     -5.380163     -6.086183     -1.773761   1.0000   1.0079
     72    2 H     1     -5.998555     -6.089431     -3.152188   1.0000   1.0079
     73    1 O     8      4.827201     -2.149309      0.695756   6.0000  15.9994
     74    2 H     1      5.169811     -1.384311      1.168073   1.0000   1.0079
     75    2 H     1      3.873140     -2.015277      0.790152   1.0000   1.0079
     76    1 O     8      2.108497      0.940656      1.696470   6.0000  15.9994
     77    2 H     1      2.763570      1.510652      1.258248   1.0000   1.0079
     78    2 H     1      2.313842      0.079150      1.294322   1.0000   1.0079
     79    1 O     8     -5.757905     -5.093599     -0.361373   6.0000  15.9994
     80    2 H     1     -6.692202     -5.443891     -0.243446   1.0000   1.0079
     81    2 H     1     -5.933954     -4.185226     -0.689323   1.0000   1.0079
     82    1 O     8     -4.850118      4.634751      2.632366   6.0000  15.9994
     83    2 H     1     -5.818692      4.729150      2.364808   1.0000   1.0079
     84    2 H     1     -4.768696      3.668506      2.248911   1.0000   1.0079
     85    1 O     8      5.512389      0.852383     -5.592791   6.0000  15.9994
     86    2 H     1      6.400927      1.196167     -5.345498   1.0000   1.0079
     87    2 H     1      5.032627      1.457110     -6.282087   1.0000   1.0079
     88    1 O     8      0.736518     -1.917695     -1.272458   6.0000  15.9994
     89    2 H     1      0.436663     -2.668596     -1.845250   1.0000   1.0079
     90    2 H     1     -0.028072     -1.634696     -0.732364   1.0000   1.0079
     91    1 O     8      3.900594      2.622197      0.082498   6.0000  15.9994
     92    2 H     1      4.660363      2.413641     -0.488502   1.0000   1.0079
     93    2 H     1      3.361931      3.246591     -0.459951   1.0000   1.0079
     94    1 O     8     -1.099162     -1.369341      2.949888   6.0000  15.9994
     95    2 H     1     -0.335406     -2.036901      3.107502   1.0000   1.0079
     96    2 H     1     -1.847346     -1.991636      3.203214   1.0000   1.0079
     97    1 O     8      2.071845     -5.650168      1.362908   6.0000  15.9994
     98    2 H     1      1.204362     -6.136982      1.256069   1.0000   1.0079
     99    2 H     1      2.450750     -5.885909      2.255821   1.0000   1.0079
    100    1 O     8     -0.628031     -3.827349     -2.846086   6.0000  15.9994
    101    2 H     1     -1.558364     -3.776964     -2.581114   1.0000   1.0079
    102    2 H     1     -0.511229     -4.587952     -3.398223   1.0000   1.0079
    103    1 O     8     -5.291843      2.062167      1.435301   6.0000  15.9994
    104    2 H     1     -4.454945      1.877605      1.901455   1.0000   1.0079
    105    2 H     1     -5.133594      1.919821      0.419723   1.0000   1.0079
    106    1 O     8      1.959972     -3.424563     -5.267360   6.0000  15.9994
    107    2 H     1      1.322556     -4.212309     -5.038883   1.0000   1.0079
    108    2 H     1      1.299929     -2.771147     -5.498678   1.0000   1.0079
    109    1 O     8     -1.193321      3.936851     -3.373747   6.0000  15.9994
    110    2 H     1     -1.200301      3.980365     -4.358294   1.0000   1.0079
    111    2 H     1     -0.740251      4.650096     -2.940559   1.0000   1.0079
    112    1 O     8     -5.424398     -5.002981      4.278463   6.0000  15.9994
    113    2 H     1     -6.116403     -4.512700      3.781732   1.0000   1.0079
    114    2 H     1     -4.740320     -5.349861      3.692094   1.0000   1.0079
    115    1 O     8      2.973298      5.793755      3.604183   6.0000  15.9994
    116    2 H     1      3.417671      6.472671      4.169501   1.0000   1.0079
    117    2 H     1      2.448520      5.204109      4.225087   1.0000   1.0079
    118    1 O     8     -4.051130      1.544593     -5.062650   6.0000  15.9994
    119    2 H     1     -3.538710      0.797484     -4.621055   1.0000   1.0079
    120    2 H     1     -4.033382      2.351849     -4.430137   1.0000   1.0079
    121    1 O     8      3.484773      0.599769      4.009149   6.0000  15.9994
    122    2 H     1      2.789650      0.537511      3.268667   1.0000   1.0079
    123    2 H     1      4.318998      0.415332      3.439528   1.0000   1.0079
    124    1 O     8     -4.620748     -1.011762      4.004895   6.0000  15.9994
    125    2 H     1     -5.347759     -1.244306      4.625324   1.0000   1.0079
    126    2 H     1     -4.216388     -1.884479      3.842806   1.0000   1.0079
    127    1 O     8     -0.216539      1.275147      3.116717   6.0000  15.9994
    128    2 H     1      0.637178      1.413680      2.728697   1.0000   1.0079
    129    2 H     1     -0.389412      0.322584      3.050879   1.0000   1.0079
    130    1 O     8     -1.991535      5.069708      0.600019   6.0000  15.9994
    131    2 H     1     -2.337650      4.234088      1.001390   1.0000   1.0079
    132    2 H     1     -2.652025      5.747116      0.850662   1.0000   1.0079
    133    1 O     8     -1.307547     -1.895612     -4.954292   6.0000  15.9994
    134    2 H     1     -0.870125     -2.402819     -4.256374   1.0000   1.0079
    135    2 H     1     -0.594969     -1.353212     -5.453243   1.0000   1.0079
    136    1 O     8     -5.137345      1.806207     -1.286768   6.0000  15.9994
    137    2 H     1     -4.698159      2.459748     -1.850567   1.0000   1.0079
    138    2 H     1     -5.424553      1.125693     -1.863395   1.0000   1.0079
    139    1 O     8     -7.383656     -1.211987     -1.950660   6.0000  15.9994
    140    2 H     1     -6.421288     -1.037143     -2.146380   1.0000   1.0079
    141    2 H     1     -7.480878     -1.531048     -1.033948   1.0000   1.0079
    142    1 O     8     -0.463945      1.404847     -1.722864   6.0000  15.9994
    143    2 H     1     -0.786735      2.186650     -2.196230   1.0000   1.0079
    144    2 H     1      0.274393      0.986416     -2.221585   1.0000   1.0079
    145    1 O     8     -0.029811     -6.521092     -1.093364   6.0000  15.9994
    146    2 H     1      0.002142     -5.531145     -1.122665   1.0000   1.0079
    147    2 H     1     -0.803113     -6.743514     -0.464856   1.0000   1.0079
    148    1 O     8      5.709094     -1.692709      6.018549   6.0000  15.9994
    149    2 H     1      6.022772     -2.510238      6.419541   1.0000   1.0079
    150    2 H     1      5.679350     -0.901240      6.652196   1.0000   1.0079
    151    1 O     8     -2.596298     -5.768397     -4.219577   6.0000  15.9994
    152    2 H     1     -2.604903     -6.707767     -4.472834   1.0000   1.0079
    153    2 H     1     -3.435454     -5.564584     -3.848351   1.0000   1.0079
    154    1 O     8     -4.944969     -1.408672     -3.247339   6.0000  15.9994
    155    2 H     1     -4.891302     -2.221732     -3.767422   1.0000   1.0079
    156    2 H     1     -3.968955     -1.096486     -3.234198   1.0000   1.0079
    157    1 O     8      2.298375     -8.080949     -1.213241   6.0000  15.9994
    158    2 H     1      1.300368     -8.063628     -1.114392   1.0000   1.0079
    159    2 H     1      2.516194     -7.105367     -1.176852   1.0000   1.0079
    160    1 O     8      6.775436     -3.896533     -5.335926   6.0000  15.9994
    161    2 H     1      7.549942     -4.100300     -5.821362   1.0000   1.0079
    162    2 H     1      6.043016     -4.432815     -5.647961   1.0000   1.0079
    163    1 O     8     -0.342484      4.965811      2.950829   6.0000  15.9994
    164    2 H     1     -0.641824      4.167256      3.471638   1.0000   1.0079
    165    2 H     1     -0.675974      4.869938      2.055138   1.0000   1.0079
    166    1 O     8     -2.805629     -4.004823      6.223906   6.0000  15.9994
    167    2 H     1     -2.385060     -4.632289      6.845556   1.0000   1.0079
    168    2 H     1     -2.379735     -3.149823      6.433016   1.0000   1.0079
    169    1 O     8     -2.792511     -3.473224      3.461233   6.0000  15.9994
    170    2 H     1     -3.112954     -3.862064      4.274613   1.0000   1.0079
    171    2 H     1     -3.285609     -4.027145      2.827441   1.0000   1.0079
    172    1 O     8      2.486771      4.680362     -3.951121   6.0000  15.9994
    173    2 H     1      3.397137      4.508164     -3.629816   1.0000   1.0079
    174    2 H     1      1.979071      4.624068     -3.115244   1.0000   1.0079
    175    1 O     8      1.659077      0.052314     -3.106919   6.0000  15.9994
    176    2 H     1      1.511356     -0.599677     -2.356369   1.0000   1.0079
    177    2 H     1      2.506872      0.526419     -3.066152   1.0000   1.0079
    178    1 O     8     -1.202305     -8.160348     -6.367070   6.0000  15.9994
    179    2 H     1     -0.905516     -9.069055     -6.570527   1.0000   1.0079
    180    2 H     1     -2.179810     -8.074002     -6.546491   1.0000   1.0079
    181    1 O     8     -0.476107      8.385162      0.598747   6.0000  15.9994
    182    2 H     1      0.363244      8.309655      1.105835   1.0000   1.0079
    183    2 H     1     -1.285239      8.075385      1.058726   1.0000   1.0079
    184    1 O     8      5.906545     -6.798977     -6.600440   6.0000  15.9994
    185    2 H     1      5.413015     -7.623317     -6.913788   1.0000   1.0079
    186    2 H     1      6.217751     -6.234454     -7.319872   1.0000   1.0079
    187    1 O     8     -0.359433     -5.262244      4.670430   6.0000  15.9994
    188    2 H     1     -0.415613     -6.098882      4.136748   1.0000   1.0079
    189    2 H     1     -1.293113     -5.154797      4.949758   1.0000   1.0079
    190    1 O     8     -3.827313     -5.527924      1.763366   6.0000  15.9994
    191    2 H     1     -4.138854     -6.362200      2.151380   1.0000   1.0079
    192    2 H     1     -4.395567     -5.321694      1.040595   1.0000   1.0079



 SCF PARAMETERS         Density guess:                                    ATOMIC
                        --------------------------------------------------------
                        max_scf:                                              30
                        max_scf_history:                                       0
                        max_diis:                                              4
                        --------------------------------------------------------
                        eps_scf:                                        1.00E-05
                        eps_scf_history:                                0.00E+00
                        eps_diis:                                       1.00E-01
                        eps_eigval:                                     1.00E-05
                        --------------------------------------------------------
                        level_shift [a.u.]:                             0.000000
                        --------------------------------------------------------
                        Outer loop SCF in use 
                        No variables optimised in outer loop
                        eps_scf                                         1.00E-06
                        max_scf                                                5
                        No outer loop optimization
                        step_size                                       5.00E-01

 PW_GRID| Information for grid number                                          1
 PW_GRID| Grid distributed over                                    48 processors
 PW_GRID| Real space group dimensions                                    48    1
 PW_GRID| the grid is blocked:                                                NO
 PW_GRID| Cutoff [a.u.]                                                    200.0
 PW_GRID| spherical cutoff:                                                   NO
 PW_GRID|   Bounds   1            -75      74                Points:         150
 PW_GRID|   Bounds   2            -75      74                Points:         150
 PW_GRID|   Bounds   3            -75      74                Points:         150
 PW_GRID| Volume element (a.u.^3)  0.3831E-02     Volume (a.u.^3)     12928.8946
 PW_GRID| Grid span                                                    FULLSPACE
 PW_GRID|   Distribution                         Average         Max         Min
 PW_GRID|   G-Vectors                            70312.5       70350       70200
 PW_GRID|   G-Rays                                 468.8         469         468
 PW_GRID|   Real Space Points                    70312.5       90000       67500

 PW_GRID| Information for grid number                                          2
 PW_GRID| Number of the reference grid                                         1
 PW_GRID| Grid distributed over                                    48 processors
 PW_GRID| Real space group dimensions                                    48    1
 PW_GRID| the grid is blocked:                                                NO
 PW_GRID| Cutoff [a.u.]                                                     66.7
 PW_GRID| spherical cutoff:                                                   NO
 PW_GRID|   Bounds   1            -45      44                Points:          90
 PW_GRID|   Bounds   2            -45      44                Points:          90
 PW_GRID|   Bounds   3            -45      44                Points:          90
 PW_GRID| Volume element (a.u.^3)  0.1774E-01     Volume (a.u.^3)     12928.8946
 PW_GRID| Grid span                                                    FULLSPACE
 PW_GRID|   Distribution                         Average         Max         Min
 PW_GRID|   G-Vectors                            15187.5       15300       15120
 PW_GRID|   G-Rays                                 168.8         170         168
 PW_GRID|   Real Space Points                    15187.5       16200        8100

 PW_GRID| Information for grid number                                          3
 PW_GRID| Number of the reference grid                                         1
 PW_GRID| Grid distributed over                                    48 processors
 PW_GRID| Real space group dimensions                                    48    1
 PW_GRID| the grid is blocked:                                                NO
 PW_GRID| Cutoff [a.u.]                                                     22.2
 PW_GRID| spherical cutoff:                                                   NO
 PW_GRID|   Bounds   1            -27      26                Points:          54
 PW_GRID|   Bounds   2            -27      26                Points:          54
 PW_GRID|   Bounds   3            -27      26                Points:          54
 PW_GRID| Volume element (a.u.^3)  0.8211E-01     Volume (a.u.^3)     12928.8946
 PW_GRID| Grid span                                                    FULLSPACE
 PW_GRID|   Distribution                         Average         Max         Min
 PW_GRID|   G-Vectors                             3280.5        3402        3186
 PW_GRID|   G-Rays                                  60.8          63          59
 PW_GRID|   Real Space Points                     3280.5        5832        2916

 PW_GRID| Information for grid number                                          4
 PW_GRID| Number of the reference grid                                         1
 PW_GRID| Grid distributed over                                    48 processors
 PW_GRID| Real space group dimensions                                     6    8
 PW_GRID| the grid is blocked:                                                NO
 PW_GRID| Cutoff [a.u.]                                                      7.4
 PW_GRID| spherical cutoff:                                                   NO
 PW_GRID|   Bounds   1            -15      14                Points:          30
 PW_GRID|   Bounds   2            -15      14                Points:          30
 PW_GRID|   Bounds   3            -15      14                Points:          30
 PW_GRID| Volume element (a.u.^3)  0.4788         Volume (a.u.^3)     12928.8946
 PW_GRID| Grid span                                                    FULLSPACE
 PW_GRID|   Distribution                         Average         Max         Min
 PW_GRID|   G-Vectors                              562.5         600         540
 PW_GRID|   G-Rays                                  18.8          20          18
 PW_GRID|   Real Space Points                      562.5         600         450

 POISSON| Solver                                                        PERIODIC
 POISSON| Periodicity                                                        XYZ

 RS_GRID| Information for grid number                                          1
 RS_GRID|   Bounds   1            -75      74                Points:         150
 RS_GRID|   Bounds   2            -75      74                Points:         150
 RS_GRID|   Bounds   3            -75      74                Points:         150
 RS_GRID| Real space distribution over                                  3 groups
 RS_GRID| Real space distribution along direction                              1
 RS_GRID| Border size                                                         18
 RS_GRID| Real space distribution over                                  4 groups
 RS_GRID| Real space distribution along direction                              2
 RS_GRID| Border size                                                         18
 RS_GRID| Real space distribution over                                  4 groups
 RS_GRID| Real space distribution along direction                              3
 RS_GRID| Border size                                                         18
 RS_GRID|   Distribution                         Average         Max         Min
 RS_GRID|   Planes                                  86.0          86          86
 RS_GRID|   Distribution                         Average         Max         Min
 RS_GRID|   Planes                                  73.5          74          73
 RS_GRID|   Distribution                         Average         Max         Min
 RS_GRID|   Planes                                  73.5          74          73

 RS_GRID| Information for grid number                                          2
 RS_GRID|   Bounds   1            -45      44                Points:          90
 RS_GRID|   Bounds   2            -45      44                Points:          90
 RS_GRID|   Bounds   3            -45      44                Points:          90
 RS_GRID| Real space distribution over                                  3 groups
 RS_GRID| Real space distribution along direction                              1
 RS_GRID| Border size                                                         20
 RS_GRID| Real space distribution over                                  4 groups
 RS_GRID| Real space distribution along direction                              2
 RS_GRID| Border size                                                         20
 RS_GRID| Real space distribution over                                  4 groups
 RS_GRID| Real space distribution along direction                              3
 RS_GRID| Border size                                                         20
 RS_GRID|   Distribution                         Average         Max         Min
 RS_GRID|   Planes                                  70.0          70          70
 RS_GRID|   Distribution                         Average         Max         Min
 RS_GRID|   Planes                                  62.5          63          62
 RS_GRID|   Distribution                         Average         Max         Min
 RS_GRID|   Planes                                  62.5          63          62

 RS_GRID| Information for grid number                                          3
 RS_GRID|   Bounds   1            -27      26                Points:          54
 RS_GRID|   Bounds   2            -27      26                Points:          54
 RS_GRID|   Bounds   3            -27      26                Points:          54
 RS_GRID| Real space fully replicated
 RS_GRID| Group size                                                           1

 RS_GRID| Information for grid number                                          4
 RS_GRID|   Bounds   1            -15      14                Points:          30
 RS_GRID|   Bounds   2            -15      14                Points:          30
 RS_GRID|   Bounds   3            -15      14                Points:          30
 RS_GRID| Real space fully replicated
 RS_GRID| Group size                                                           1

 MD_PAR| Molecular dynamics protocol (MD input parameters)
 MD_PAR| Ensemble type                                                       NVT
 MD_PAR| Number of time steps                                                  5
 MD_PAR| Time step [fs]                                                 0.500000
 MD_PAR| Temperature [K]                                              300.000000
 MD_PAR| Temperature tolerance [K]                                      0.000000
 MD_PAR| Print MD information every                                    1 step(s)
 MD_PAR| File type   Print frequency [steps]                          File names
 MD_PAR| Coordinates          1                                  aiida-pos-1.xyz
 MD_PAR| Velocities           1                                  aiida-vel-1.xyz
 MD_PAR| Energies             1                                     aiida-1.ener
 MD_PAR| Dump                20                                  aiida-1.restart

 ROT| Rotational analysis information
 ROT| Principal axes and moments of inertia [a.u.]
 ROT|                           1                   2                   3
 ROT| Eigenvalues      2.05585957588E+08   2.18420756715E+08   2.44815971865E+08
 ROT|      x              0.422535724749     -0.517084350433      0.744370429187
 ROT|      y              0.905625145748      0.208115968654     -0.369500796994
 ROT|      z              0.036147706690      0.830247865477      0.556221021872
 ROT| Number of rotovibrational vectors                                        6

 DOF| Calculation of degrees of freedom
 DOF| Number of atoms                                                        192
 DOF| Number of intramolecular constraints                                     0
 DOF| Number of intermolecular constraints                                     0
 DOF| Invariants (translations + rotations)                                    0
 DOF| Degrees of freedom                                                     576

 DOF| Restraints information
 DOF| Number of intramolecular restraints                                      0
 DOF| Number of intermolecular restraints                                      0

 THERMOSTAT| Thermostat information for PARTICLES
 THERMOSTAT| Type of thermostat                               Nose-Hoover-Chains
 THERMOSTAT| Nose-Hoover-Chain length                                          3
 THERMOSTAT| Nose-Hoover-Chain time constant [fs]                    1000.000000
 THERMOSTAT| Order of Yoshida integrator                                       3
 THERMOSTAT| Number of multiple time steps                                     2
 THERMOSTAT| Initial potential energy                         0.000000000000E+00
 THERMOSTAT| Initial kinetic energy                           0.273612845660E+00
 THERMOSTAT| End of thermostat information for PARTICLES

 MD_VEL| Velocities initialization
 MD_VEL| Initial temperature [K]                                      300.000000
 MD_VEL| COM velocity            -0.0000000000    -0.0000000000     0.0000000000

 Number of electrons:                                                        512
 Number of occupied orbitals:                                                256
 Number of molecular orbitals:                                               256

 Number of orbital functions:                                               1472
 Number of independent orbital functions:                                   1472

 Extrapolation method: initial_guess

 Atomic guess: The first density matrix is obtained in terms of atomic orbitals
               and electronic configurations assigned to each atomic kind

 Guess for atomic kind: O

 Electronic structure
    Total number of core electrons                                          2.00
    Total number of valence electrons                                       6.00
    Total number of electrons                                               8.00
    Multiplicity                                                   not specified
    S   [  2.00] 2.00
    P      4.00


 *******************************************************************************
                  Iteration          Convergence                     Energy [au]
 *******************************************************************************
                          1        0.708315                     -15.576645311500
                          2        0.608879                     -15.587933561584
                          3        0.102828E-01                 -15.656849565404
                          4        0.113889E-02                 -15.656866888140
                          5        0.434197E-03                 -15.656867072159
                          6        0.263771E-03                 -15.656867091904
                          7        0.478536E-06                 -15.656867103452

 Energy components [Hartree]           Total Energy ::          -15.656867103452
                                        Band Energy ::           -3.000198112285
                                     Kinetic Energy ::           11.759971203220
                                   Potential Energy ::          -27.416838306672
                                      Virial (-V/T) ::            2.331369510426
                                        Core Energy ::          -26.140716385623
                                          XC Energy ::           -3.154051012914
                                     Coulomb Energy ::           13.637900295084
                       Total Pseudopotential Energy ::          -37.935781716540
                       Local Pseudopotential Energy ::          -39.218907440693
                    Nonlocal Pseudopotential Energy ::            1.283125724153
                                        Confinement ::            0.350941276976

 Orbital energies  State     L     Occupation   Energy[a.u.]          Energy[eV]

                       1     0          2.000      -0.864471          -23.523463

                       1     1          4.000      -0.317814           -8.648154


 Total Electron Density at R=0:                                         0.000068

 Guess for atomic kind: H

 Electronic structure
    Total number of core electrons                                          0.00
    Total number of valence electrons                                       1.00
    Total number of electrons                                               1.00
    Multiplicity                                                   not specified
    S      1.00


 *******************************************************************************
                  Iteration          Convergence                     Energy [au]
 *******************************************************************************
                          1        0.437545E-02                  -0.424159432110
                          2        0.531356E-03                  -0.424178438213
                          3        0.259176E-06                  -0.424178722480

 Energy components [Hartree]           Total Energy ::           -0.424178722480
                                        Band Energy ::           -0.199015229016
                                     Kinetic Energy ::            0.464007633961
                                   Potential Energy ::           -0.888186356441
                                      Virial (-V/T) ::            1.914163240935
                                        Core Energy ::           -0.479160803564
                                          XC Energy ::           -0.244352904054
                                     Coulomb Energy ::            0.299334985138
                       Total Pseudopotential Energy ::           -0.962295316385
                       Local Pseudopotential Energy ::           -0.962295316385
                    Nonlocal Pseudopotential Energy ::            0.000000000000
                                        Confinement ::            0.191268788606

 Orbital energies  State     L     Occupation   Energy[a.u.]          Energy[eV]

                       1     0          1.000      -0.199015           -5.415480


 Total Electron Density at R=0:                                         0.242907
 Re-scaling the density matrix to get the right number of electrons
                  # Electrons              Trace(P)               Scaling factor
                          512               512.001                        1.000


 SCF WAVEFUNCTION OPTIMIZATION

  ----------------------------------- OT ---------------------------------------
  Minimizer      : DIIS                : direct inversion
                                         in the iterative subspace
                                         using   7 DIIS vectors
                                         safer DIIS on
  Preconditioner : FULL_SINGLE_INVERSE : inversion of 
                                         H + eS - 2*(Sc)(c^T*H*c+const)(Sc)^T
  Precond_solver : DEFAULT
  stepsize       :    0.08000000                  energy_gap     :    0.08000000
  eps_taylor     :   0.10000E-15                  max_taylor     :             4
  ----------------------------------- OT ---------------------------------------

  Step     Update method      Time    Convergence         Total energy    Change
  ------------------------------------------------------------------------------
     1 OT DIIS     0.80E-01    0.6     0.03061904     -1055.5512986970 -1.06E+03
     2 OT DIIS     0.80E-01    0.6     0.02256020     -1076.3314309456 -2.08E+01
     3 OT DIIS     0.80E-01    0.6     0.01821838     -1086.8221407849 -1.05E+01
     4 OT DIIS     0.80E-01    0.6     0.01177433     -1095.4711931626 -8.65E+00
     5 OT DIIS     0.80E-01    0.6     0.00644009     -1099.7812713300 -4.31E+00
     6 OT DIIS     0.80E-01    0.6     0.00452701     -1101.1091173498 -1.33E+00
     7 OT DIIS     0.80E-01    0.6     0.00360908     -1101.8431257294 -7.34E-01
     8 OT DIIS     0.80E-01    0.6     0.00298303     -1102.3262586453 -4.83E-01
     9 OT DIIS     0.80E-01    0.6     0.00259174     -1102.6375745946 -3.11E-01
    10 OT DIIS     0.80E-01    0.6     0.00199772     -1102.9298747301 -2.92E-01
    11 OT DIIS     0.80E-01    0.6     0.00134874     -1103.1214142309 -1.92E-01
    12 OT DIIS     0.80E-01    0.6     0.00127504     -1103.1645613956 -4.31E-02
    13 OT DIIS     0.80E-01    0.6     0.00080027     -1103.2556407012 -9.11E-02
    14 OT DIIS     0.80E-01    0.6     0.00064034     -1103.2874696235 -3.18E-02
    15 OT DIIS     0.80E-01    0.6     0.00065387     -1103.3000502499 -1.26E-02
    16 OT DIIS     0.80E-01    0.6     0.00037143     -1103.3231718934 -2.31E-02
    17 OT DIIS     0.80E-01    0.6     0.00026864     -1103.3356753174 -1.25E-02
    18 OT DIIS     0.80E-01    0.6     0.00020499     -1103.3417780903 -6.10E-03
    19 OT DIIS     0.80E-01    0.5     0.00016740     -1103.3445739741 -2.80E-03
    20 OT DIIS     0.80E-01    0.6     0.00013800     -1103.3470337044 -2.46E-03
    21 OT DIIS     0.80E-01    0.6     0.00011016     -1103.3489052529 -1.87E-03
    22 OT DIIS     0.80E-01    0.6     0.00009431     -1103.3501559232 -1.25E-03
    23 OT DIIS     0.80E-01    0.6     0.00008287     -1103.3510744192 -9.18E-04
    24 OT DIIS     0.80E-01    0.6     0.00007350     -1103.3518679889 -7.94E-04
    25 OT DIIS     0.80E-01    0.6     0.00006441     -1103.3526346041 -7.67E-04
    26 OT DIIS     0.80E-01    0.6     0.00005767     -1103.3531935414 -5.59E-04
    27 OT DIIS     0.80E-01    0.6     0.00005235     -1103.3536533649 -4.60E-04
    28 OT DIIS     0.80E-01    0.6     0.00004692     -1103.3541019789 -4.49E-04
    29 OT DIIS     0.80E-01    0.6     0.00004252     -1103.3544491190 -3.47E-04
    30 OT DIIS     0.80E-01    0.6     0.00003861     -1103.3547765543 -3.27E-04

  Leaving inner SCF loop after reaching    30 steps.


  Electronic density on regular grids:       -511.9999997253        0.0000002747
  Core density on regular grids:              511.9999984883       -0.0000015117
  Total charge density on r-space grids:       -0.0000012371
  Total charge density g-space grids:          -0.0000012371

  Overlap energy of the core charge distribution:               0.00000237129466
  Self energy of the core charge distribution:              -2838.21791979120962
  Core Hamiltonian energy:                                    827.41529931790728
  Hartree energy:                                            1179.28879418527549
  Exchange-correlation energy:                               -271.59515103688921
  Dispersion energy:                                           -0.24580160066492

  Total energy:                                             -1103.35477655428622

  outer SCF iter =    1 RMS gradient =   0.39E-04 energy =      -1103.3547765543

  ----------------------------------- OT ---------------------------------------
  Minimizer      : DIIS                : direct inversion
                                         in the iterative subspace
                                         using   7 DIIS vectors
                                         safer DIIS on
  Preconditioner : FULL_SINGLE_INVERSE : inversion of 
                                         H + eS - 2*(Sc)(c^T*H*c+const)(Sc)^T
  Precond_solver : DEFAULT
  stepsize       :    0.08000000                  energy_gap     :    0.08000000
  eps_taylor     :   0.10000E-15                  max_taylor     :             4
  ----------------------------------- OT ---------------------------------------

  Step     Update method      Time    Convergence         Total energy    Change
  ------------------------------------------------------------------------------
     1 OT DIIS     0.80E-01    1.2     0.00019120     -1103.3550374637 -2.61E-04
     2 OT DIIS     0.80E-01    0.5     0.00012685     -1103.3559464156 -9.09E-04
     3 OT DIIS     0.80E-01    0.5     0.00003597     -1103.3566822349 -7.36E-04
     4 OT DIIS     0.80E-01    0.5     0.00001561     -1103.3567390932 -5.69E-05
     5 OT DIIS     0.80E-01    0.6     0.00000648     -1103.3567492222 -1.01E-05

  *** SCF run converged in     5 steps ***


  Electronic density on regular grids:       -511.9999997254        0.0000002746
  Core density on regular grids:              511.9999984883       -0.0000015117
  Total charge density on r-space grids:       -0.0000012371
  Total charge density g-space grids:          -0.0000012371

  Overlap energy of the core charge distribution:               0.00000237129466
  Self energy of the core charge distribution:              -2838.21791979120962
  Core Hamiltonian energy:                                    827.41162949707859
  Hartree energy:                                            1179.29090416068425
  Exchange-correlation energy:                               -271.59556385939879
  Dispersion energy:                                           -0.24580160066492

  Total energy:                                             -1103.35674922221597

  outer SCF iter =    2 RMS gradient =   0.65E-05 energy =      -1103.3567492222

  ----------------------------------- OT ---------------------------------------
  Minimizer      : DIIS                : direct inversion
                                         in the iterative subspace
                                         using   7 DIIS vectors
                                         safer DIIS on
  Preconditioner : FULL_SINGLE_INVERSE : inversion of 
                                         H + eS - 2*(Sc)(c^T*H*c+const)(Sc)^T
  Precond_solver : DEFAULT
  stepsize       :    0.08000000                  energy_gap     :    0.08000000
  eps_taylor     :   0.10000E-15                  max_taylor     :             4
  ----------------------------------- OT ---------------------------------------

  Step     Update method      Time    Convergence         Total energy    Change
  ------------------------------------------------------------------------------
     1 OT DIIS     0.80E-01    1.2     0.00000269     -1103.3567510253 -1.80E-06

  *** SCF run converged in     1 steps ***


  Electronic density on regular grids:       -511.9999997254        0.0000002746
  Core density on regular grids:              511.9999984883       -0.0000015117
  Total charge density on r-space grids:       -0.0000012371
  Total charge density g-space grids:          -0.0000012371

  Overlap energy of the core charge distribution:               0.00000237129466
  Self energy of the core charge distribution:              -2838.21791979120962
  Core Hamiltonian energy:                                    827.41205617753121
  Hartree energy:                                            1179.29054790114333
  Exchange-correlation energy:                               -271.59563608343240
  Dispersion energy:                                           -0.24580160066492

  Total energy:                                             -1103.35675102533787

  outer SCF iter =    3 RMS gradient =   0.27E-05 energy =      -1103.3567510253

  ----------------------------------- OT ---------------------------------------
  Minimizer      : DIIS                : direct inversion
                                         in the iterative subspace
                                         using   7 DIIS vectors
                                         safer DIIS on
  Preconditioner : FULL_SINGLE_INVERSE : inversion of 
                                         H + eS - 2*(Sc)(c^T*H*c+const)(Sc)^T
  Precond_solver : DEFAULT
  stepsize       :    0.08000000                  energy_gap     :    0.08000000
  eps_taylor     :   0.10000E-15                  max_taylor     :             4
  ----------------------------------- OT ---------------------------------------

  Step     Update method      Time    Convergence         Total energy    Change
  ------------------------------------------------------------------------------
     1 OT DIIS     0.80E-01    1.8     0.00000189     -1103.3567512086 -1.83E-07

  *** SCF run converged in     1 steps ***


  Electronic density on regular grids:       -511.9999997254        0.0000002746
  Core density on regular grids:              511.9999984883       -0.0000015117
  Total charge density on r-space grids:       -0.0000012371
  Total charge density g-space grids:          -0.0000012371

  Overlap energy of the core charge distribution:               0.00000237129466
  Self energy of the core charge distribution:              -2838.21791979120962
  Core Hamiltonian energy:                                    827.41199496838556
  Hartree energy:                                            1179.29059737840453
  Exchange-correlation energy:                               -271.59562453484722
  Dispersion energy:                                           -0.24580160066492

  Total energy:                                             -1103.35675120863721

  outer SCF iter =    4 RMS gradient =   0.19E-05 energy =      -1103.3567512086

  ----------------------------------- OT ---------------------------------------
  Minimizer      : DIIS                : direct inversion
                                         in the iterative subspace
                                         using   7 DIIS vectors
                                         safer DIIS on
  Preconditioner : FULL_SINGLE_INVERSE : inversion of 
                                         H + eS - 2*(Sc)(c^T*H*c+const)(Sc)^T
  Precond_solver : DEFAULT
  stepsize       :    0.08000000                  energy_gap     :    0.08000000
  eps_taylor     :   0.10000E-15                  max_taylor     :             4
  ----------------------------------- OT ---------------------------------------

  Step     Update method      Time    Convergence         Total energy    Change
  ------------------------------------------------------------------------------
     1 OT DIIS     0.80E-01    2.4     0.00000138     -1103.3567513018 -9.32E-08

  *** SCF run converged in     1 steps ***


  Electronic density on regular grids:       -511.9999997254        0.0000002746
  Core density on regular grids:              511.9999984883       -0.0000015117
  Total charge density on r-space grids:       -0.0000012371
  Total charge density g-space grids:          -0.0000012371

  Overlap energy of the core charge distribution:               0.00000237129466
  Self energy of the core charge distribution:              -2838.21791979120962
  Core Hamiltonian energy:                                    827.41201479617030
  Hartree energy:                                            1179.29058099329745
  Exchange-correlation energy:                               -271.59562807068920
  Dispersion energy:                                           -0.24580160066492

  Total energy:                                             -1103.35675130180130

  outer SCF iter =    5 RMS gradient =   0.14E-05 energy =      -1103.3567513018

  ----------------------------------- OT ---------------------------------------
  Minimizer      : DIIS                : direct inversion
                                         in the iterative subspace
                                         using   7 DIIS vectors
                                         safer DIIS on
  Preconditioner : FULL_SINGLE_INVERSE : inversion of 
                                         H + eS - 2*(Sc)(c^T*H*c+const)(Sc)^T
  Precond_solver : DEFAULT
  stepsize       :    0.08000000                  energy_gap     :    0.08000000
  eps_taylor     :   0.10000E-15                  max_taylor     :             4
  ----------------------------------- OT ---------------------------------------

  Step     Update method      Time    Convergence         Total energy    Change
  ------------------------------------------------------------------------------
     1 OT DIIS     0.80E-01    2.9     0.00000103     -1103.3567513520 -5.02E-08

  *** SCF run converged in     1 steps ***


  Electronic density on regular grids:       -511.9999997254        0.0000002746
  Core density on regular grids:              511.9999984883       -0.0000015117
  Total charge density on r-space grids:       -0.0000012371
  Total charge density g-space grids:          -0.0000012371

  Overlap energy of the core charge distribution:               0.00000237129466
  Self energy of the core charge distribution:              -2838.21791979120962
  Core Hamiltonian energy:                                    827.41201375042829
  Hartree energy:                                            1179.29058160883505
  Exchange-correlation energy:                               -271.59562769067770
  Dispersion energy:                                           -0.24580160066492

  Total energy:                                             -1103.35675135199426

  outer SCF iter =    6 RMS gradient =   0.10E-05 energy =      -1103.3567513520
  outer SCF loop FAILED to converge after    6 iterations or   39 steps


 *******************************************************************************
 *   ___                                                                       *
 *  /   \                                                                      *
 * [ABORT]                                                                     *
 *  \___/     SCF run NOT converged. To continue the calculation regardless,   *
 *    |             please set the keyword IGNORE_CONVERGENCE_FAILURE.         *
 *  O/|                                                                        *
 * /| |                                                                        *
 * / \                                                            qs_scf.F:611 *
 *******************************************************************************


 ===== Routine Calling Stack ===== 

            5 scf_env_do_scf
            4 qs_energies
            3 qs_forces
            2 qs_mol_dyn_low
            1 CP2K
