 DBCSR| CPU Multiplication driver                                           XSMM (U)
 DBCSR| Multrec recursion limit                                              512 (U)
 DBCSR| Multiplication stack size                                           1000 (D)
 DBCSR| Maximum elements for images                                    UNLIMITED (U)
 DBCSR| Multiplicative factor virtual images                                   1 (U)
 DBCSR| Use multiplication densification                                       T (D)
 DBCSR| Multiplication size stacks                                             3 (U)
 DBCSR| Use memory pool for CPU allocation                                     F (U)
 DBCSR| Number of 3D layers                                               SINGLE (U)
 DBCSR| Use MPI memory allocation                                              F (U)
 DBCSR| Use RMA algorithm                                                      F (U)
 DBCSR| Use Communication thread                                               T (U)
 DBCSR| Communication thread load                                             83 (D)
 DBCSR| MPI: My process id                                                     0
 DBCSR| MPI: Number of processes                                              48
 DBCSR| OMP: Current number of threads                                         2
 DBCSR| OMP: Max number of threads                                             2
 DBCSR| Split modifier for TAS multiplication algorithm                  1.0E+00 (U)


  **** **** ******  **  PROGRAM STARTED AT               2025-02-10 12:07:01.727
 ***** ** ***  *** **   PROGRAM STARTED ON                                 c0447
 **    ****   ******    PROGRAM STARTED BY                                u12591
 ***** **    ** ** **   PROGRAM PROCESS ID                                566555
  **** **  *******  **  PROGRAM STARTED IN /mnt/lustre-grete/usr/u12591/cp2k_par
                                           ser_tests/cp2k-2025.1/bands_spin_pol

 CP2K| version string:                                       CP2K version 2025.1
 CP2K| source code revision number:                                  git:9635df4
 CP2K| cp2kflags: omp libint fftw3 libxc libgrpp parallel scalapack mpi_f08 xsmm
 CP2K|             spglib libdftd4 libvori libbqb hdf5
 CP2K| is freely available from                            https://www.cp2k.org/
 CP2K| Program compiled at                          Tue Jan  7 11:11:50 CET 2025
 CP2K| Program compiled on                                              glogin11
 CP2K| Program compiled for                                                local
 CP2K| Data directory path    /mnt/lustre-grete/usr/u12591/software/cp2k/cp2k-20
 CP2K| Input file name                                                 aiida.inp

 GLOBAL| Force Environment number                                              1
 GLOBAL| Basis set file name                                        BASIS_MOLOPT
 GLOBAL| Potential file name                                      GTH_POTENTIALS
 GLOBAL| MM Potential file name                                     MM_POTENTIAL
 GLOBAL| Coordinate file name                                      __STD_INPUT__
 GLOBAL| Method name                                                        CP2K
 GLOBAL| Project name                                            TiO2-bulk-bands
 GLOBAL| Run type                                                         ENERGY
 GLOBAL| FFT library                                                       FFTW3
 GLOBAL| Diagonalization library                                       ScaLAPACK
 GLOBAL| DGEMM library                                                      BLAS
 GLOBAL| Orthonormality check for eigenvectors                          DISABLED
 GLOBAL| Matrix multiplication library                                 ScaLAPACK
 GLOBAL| All-to-all communication in single precision                          F
 GLOBAL| FFTs using library dependent lengths                                  F
 GLOBAL| Grid backend                                                       AUTO
 GLOBAL| Global print level                                                  LOW
 GLOBAL| MPI I/O enabled                                                       T
 GLOBAL| Total number of message passing processes                            48
 GLOBAL| Number of threads for this process                                    2
 GLOBAL| This output is from process                                           0
 GLOBAL| OpenMP stack size per thread (OMP_STACKSIZE)                    default
 GLOBAL| CPU model name                           Intel(R) Xeon(R) Platinum 8468
 GLOBAL| CPUID                                                              1003

 MEMORY| system memory details [Kb]
 MEMORY|                        rank 0           min           max       average
 MEMORY| MemTotal            527928740     527928740     527928740     527928740
 MEMORY| MemFree             514761336     514761304     514761336     514761309
 MEMORY| Buffers                  9436          9436          9436          9436
 MEMORY| Cached                3789108       3789104       3789108       3789104
 MEMORY| Slab                  1868808       1868808       1868840       1868833
 MEMORY| SReclaimable           299852        299852        299852        299852
 MEMORY| MemLikelyFree       518859732     518859696     518859732     518859701


 GENERATE|  Preliminary Number of Bonds generated:                             0
 GENERATE|  Achieved consistency in connectivity generation.

 *******************************************************************************
 *******************************************************************************
 **                                                                           **
 **     #####                         ##              ##                      **
 **    ##   ##            ##          ##              ##                      **
 **   ##     ##                       ##            ######                    **
 **   ##     ##  ##   ##  ##   #####  ##  ##   ####   ##    #####    #####    **
 **   ##     ##  ##   ##  ##  ##      ## ##   ##      ##   ##   ##  ##   ##   **
 **   ##  ## ##  ##   ##  ##  ##      ####     ###    ##   ######   ######    **
 **    ##  ###   ##   ##  ##  ##      ## ##      ##   ##   ##       ##        **
 **     #######   #####   ##   #####  ##  ##  ####    ##    #####   ##        **
 **           ##                                                    ##        **
 **                                                                           **
 **                                                ... make the atoms dance   **
 **                                                                           **
 **            Copyright (C) by CP2K developers group (2000-2025)             **
 **                      J. Chem. Phys. 152, 194103 (2020)                    **
 **                                                                           **
 *******************************************************************************


 TOTAL NUMBERS AND MAXIMUM NUMBERS

  Total number of            - Atomic kinds:                                   2
                             - Atoms:                                          6
                             - Shell sets:                                     6
                             - Shells:                                        36
                             - Primitive Cartesian functions:                 40
                             - Cartesian basis functions:                    118
                             - Spherical basis functions:                    104

  Maximum angular momentum of- Orbital basis functions:                        3
                             - Local part of the GTH pseudopotential:          2
                             - Non-local part of the GTH pseudopotential:      3


 SCF PARAMETERS         Density guess:                                   RESTART
                        --------------------------------------------------------
                        max_scf:                                             150
                        max_scf_history:                                       0
                        max_diis:                                              4
                        --------------------------------------------------------
                        eps_scf:                                        1.00E-04
                        eps_scf_history:                                0.00E+00
                        eps_diis:                                       1.00E-01
                        eps_eigval:                                     1.00E-05
                        --------------------------------------------------------
                        level_shift [a.u.]:                             0.000000
                        --------------------------------------------------------
                        Mixing method:                            BROYDEN_MIXING
                                                charge density mixing in g-space
                        --------------------------------------------------------
                        No outer SCF

 Spin 1

 Number of electrons:                                                         24
 Number of occupied orbitals:                                                 24
 Number of molecular orbitals:                                                24

 Spin 2

 Number of electrons:                                                         24
 Number of occupied orbitals:                                                 24
 Number of molecular orbitals:                                                24

 Number of orbital functions:                                                104
 Number of independent orbital functions:                                    104

 Extrapolation method: initial_guess

 *** WARNING in qs_initial_guess.F:303 :: User requested to restart the    ***
 *** wavefunction from the file named: TiO2-bulk-bands-RESTART.kp. This    ***
 *** file does not exist. Please check the existence of the file or change ***
 *** properly the value of the keyword WFN_RESTART_FILE_NAME. Calculation  ***
 *** continues using ATOMIC GUESS.                                         ***



 SCF WAVEFUNCTION OPTIMIZATION

  Step     Update method      Time    Convergence         Total energy    Change
  ------------------------------------------------------------------------------
     1 NoMix/Diag. 0.10E+00    0.2     1.04553863      -181.2243892108 -1.81E+02
     2 Broy./Diag. 0.10E+00    0.3     0.03285145      -177.4084463552  3.82E+00
     3 Broy./Diag. 0.10E+00    0.3     0.13050515      -179.3907182113 -1.98E+00
     4 Broy./Diag. 0.10E+00    0.3     0.04049567      -180.8207761659 -1.43E+00
     5 Broy./Diag. 0.10E+00    0.3     0.00350471      -180.8346897339 -1.39E-02
     6 Broy./Diag. 0.10E+00    0.3     0.00603117      -180.9109522790 -7.63E-02
     7 Broy./Diag. 0.10E+00    0.3     0.00131856      -181.0648857718 -1.54E-01
     8 Broy./Diag. 0.10E+00    0.3     0.00348798      -180.9685015507  9.64E-02
     9 Broy./Diag. 0.10E+00    0.3     0.00042384      -180.8998182881  6.87E-02
    10 Broy./Diag. 0.10E+00    0.3     0.00019163      -180.8957294641  4.09E-03
    11 Broy./Diag. 0.10E+00    0.3     0.00025270      -180.9036725524 -7.94E-03
    12 Broy./Diag. 0.10E+00    0.3     0.00007877      -180.9088753187 -5.20E-03

  *** SCF run converged in    12 steps ***


  Electronic density on regular grids:        -47.9999551034        0.0000448966
  Core density on regular grids:               47.9999998635       -0.0000001365
  Total charge density on r-space grids:        0.0000447601
  Total charge density g-space grids:           0.0000447601

  Overlap energy of the core charge distribution:               0.00000000000004
  Self energy of the core charge distribution:               -379.90298629198736
  Core Hamiltonian energy:                                    101.16817662080614
  Hartree energy:                                             126.52226904888542
  Exchange-correlation energy:                                -28.69633469641385

  Total energy:                                              -180.90887531870959

  Integrated absolute spin density  :                               0.0000000000

 *** WARNING in qs_scf_post_gpw.F:1846 :: Spin contamination estimate not ***
 *** implemented for k-points.                                            ***


 KPOINTS| Band Structure Calculation
 KPOINTS| Number of k-point sets                                               3
 KPOINTS| Number of added MOs/bands                                           10
 KPOINTS| Number of k-points in set    1                                       7
 KPOINTS| In units of b-vector [2pi/Bohr]
 KPOINTS| Special point     1       GAMMA     0.000000     0.000000     0.000000
 KPOINTS| Special point     2           X     0.000000     0.500000     0.000000
#  Point 1      Spin 1:     0.00000000     0.00000000     0.00000000       0.14285714
#   Band    Energy [eV]     Occupation
       1   -51.67214784     1.00000000
       2   -51.65838333     1.00000000
       3   -26.44597330     1.00000000
       4   -26.44424159     1.00000000
       5   -26.29930789     1.00000000
       6   -26.29805015     1.00000000
       7   -26.27860379     1.00000000
       8   -26.24868391     1.00000000
       9   -11.29147520     1.00000000
      10   -10.17323700     1.00000000
      11    -9.49256852     1.00000000
      12    -9.49139285     1.00000000
      13     1.09832960     1.00000000
      14     1.52311337     1.00000000
      15     2.07592272     1.00000000
      16     3.04313802     1.00000000
      17     3.05061856     1.00000000
      18     4.26434375     1.00000000
      19     4.26637642     1.00000000
      20     4.86753847     1.00000000
      21     6.08797822     1.00000000
      22     6.34046581     1.00000000
      23     6.34296021     1.00000000
      24     6.81338634     1.00000000
      25     8.49798628     0.00000000
      26     8.77834048     0.00000000
      27     9.03536830     0.00000000
      28     9.11166233     0.00000000
      29     9.12050109     0.00000000
      30    10.89048946     0.00000000
      31    11.18603877     0.00000000
      32    13.08792701     0.00000000
      33    13.09965470     0.00000000
      34    14.05301036     0.00000000
#  Point 1      Spin 2:     0.00000000     0.00000000     0.00000000       0.14285714
#   Band    Energy [eV]     Occupation
       1   -51.67214784     1.00000000
       2   -51.65838333     1.00000000
       3   -26.44597330     1.00000000
       4   -26.44424159     1.00000000
       5   -26.29930789     1.00000000
       6   -26.29805015     1.00000000
       7   -26.27860379     1.00000000
       8   -26.24868391     1.00000000
       9   -11.29147520     1.00000000
      10   -10.17323700     1.00000000
      11    -9.49256852     1.00000000
      12    -9.49139285     1.00000000
      13     1.09832960     1.00000000
      14     1.52311337     1.00000000
      15     2.07592272     1.00000000
      16     3.04313802     1.00000000
      17     3.05061856     1.00000000
      18     4.26434375     1.00000000
      19     4.26637642     1.00000000
      20     4.86753847     1.00000000
      21     6.08797822     1.00000000
      22     6.34046581     1.00000000
      23     6.34296021     1.00000000
      24     6.81338634     1.00000000
      25     8.49798628     0.00000000
      26     8.77834048     0.00000000
      27     9.03536830     0.00000000
      28     9.11166233     0.00000000
      29     9.12050109     0.00000000
      30    10.89048946     0.00000000
      31    11.18603877     0.00000000
      32    13.08792701     0.00000000
      33    13.09965470     0.00000000
      34    14.05301036     0.00000000
#  Point 2      Spin 1:     0.00000000     0.08333333     0.00000000       0.14285714
#   Band    Energy [eV]     Occupation
       1   -51.67194288     1.00000000
       2   -51.65855764     1.00000000
       3   -26.44408748     1.00000000
       4   -26.44230435     1.00000000
       5   -26.30156656     1.00000000
       6   -26.30025424     1.00000000
       7   -26.27814071     1.00000000
       8   -26.24914462     1.00000000
       9   -11.26839331     1.00000000
      10   -10.17456006     1.00000000
      11    -9.51522985     1.00000000
      12    -9.50030095     1.00000000
      13     1.14362182     1.00000000
      14     1.55055599     1.00000000
      15     2.11776748     1.00000000
      16     3.04665165     1.00000000
      17     3.05442670     1.00000000
      18     4.22145368     1.00000000
      19     4.25337519     1.00000000
      20     4.87033860     1.00000000
      21     6.04296259     1.00000000
      22     6.20818336     1.00000000
      23     6.27967792     1.00000000
      24     6.79445765     1.00000000
      25     8.54047164     0.00000000
      26     8.83913664     0.00000000
      27     9.08929490     0.00000000
      28     9.14209149     0.00000000
      29     9.15755073     0.00000000
      30    10.93791845     0.00000000
      31    11.15176248     0.00000000
      32    13.06723074     0.00000000
      33    13.07997434     0.00000000
      34    14.01112447     0.00000000
#  Point 2      Spin 2:     0.00000000     0.08333333     0.00000000       0.14285714
#   Band    Energy [eV]     Occupation
       1   -51.67194288     1.00000000
       2   -51.65855764     1.00000000
       3   -26.44408748     1.00000000
       4   -26.44230435     1.00000000
       5   -26.30156656     1.00000000
       6   -26.30025424     1.00000000
       7   -26.27814071     1.00000000
       8   -26.24914462     1.00000000
       9   -11.26839331     1.00000000
      10   -10.17456006     1.00000000
      11    -9.51522985     1.00000000
      12    -9.50030095     1.00000000
      13     1.14362182     1.00000000
      14     1.55055599     1.00000000
      15     2.11776748     1.00000000
      16     3.04665165     1.00000000
      17     3.05442670     1.00000000
      18     4.22145368     1.00000000
      19     4.25337519     1.00000000
      20     4.87033860     1.00000000
      21     6.04296259     1.00000000
      22     6.20818336     1.00000000
      23     6.27967792     1.00000000
      24     6.79445765     1.00000000
      25     8.54047164     0.00000000
      26     8.83913664     0.00000000
      27     9.08929490     0.00000000
      28     9.14209149     0.00000000
      29     9.15755073     0.00000000
      30    10.93791845     0.00000000
      31    11.15176248     0.00000000
      32    13.06723074     0.00000000
      33    13.07997434     0.00000000
      34    14.01112447     0.00000000
#  Point 3      Spin 1:     0.00000000     0.16666667     0.00000000       0.14285714
#   Band    Energy [eV]     Occupation
       1   -51.67134603     1.00000000
       2   -51.65909173     1.00000000
       3   -26.43857878     1.00000000
       4   -26.43657244     1.00000000
       5   -26.30813436     1.00000000
       6   -26.30656409     1.00000000
       7   -26.27679273     1.00000000
       8   -26.25048575     1.00000000
       9   -11.20037932     1.00000000
      10   -10.18331098     1.00000000
      11    -9.57694450     1.00000000
      12    -9.52432789     1.00000000
      13     1.27047221     1.00000000
      14     1.62834189     1.00000000
      15     2.24603688     1.00000000
      16     3.05538830     1.00000000
      17     3.06573781     1.00000000
      18     4.10236726     1.00000000
      19     4.20985254     1.00000000
      20     4.88205096     1.00000000
      21     5.86128312     1.00000000
      22     5.91981827     1.00000000
      23     6.13876812     1.00000000
      24     6.72317231     1.00000000
      25     8.65084419     0.00000000
      26     8.97791489     0.00000000
      27     9.21988141     0.00000000
      28     9.23367903     0.00000000
      29     9.26238813     0.00000000
      30    11.03269687     0.00000000
      31    11.10453651     0.00000000
      32    13.00699472     0.00000000
      33    13.02766789     0.00000000
      34    13.87623755     0.00000000
#  Point 3      Spin 2:     0.00000000     0.16666667     0.00000000       0.14285714
#   Band    Energy [eV]     Occupation
       1   -51.67134603     1.00000000
       2   -51.65909173     1.00000000
       3   -26.43857878     1.00000000
       4   -26.43657244     1.00000000
       5   -26.30813436     1.00000000
       6   -26.30656409     1.00000000
       7   -26.27679273     1.00000000
       8   -26.25048575     1.00000000
       9   -11.20037932     1.00000000
      10   -10.18331098     1.00000000
      11    -9.57694450     1.00000000
      12    -9.52432789     1.00000000
      13     1.27047221     1.00000000
      14     1.62834189     1.00000000
      15     2.24603688     1.00000000
      16     3.05538830     1.00000000
      17     3.06573781     1.00000000
      18     4.10236726     1.00000000
      19     4.20985254     1.00000000
      20     4.88205096     1.00000000
      21     5.86128312     1.00000000
      22     5.91981827     1.00000000
      23     6.13876812     1.00000000
      24     6.72317231     1.00000000
      25     8.65084419     0.00000000
      26     8.97791489     0.00000000
      27     9.21988141     0.00000000
      28     9.23367903     0.00000000
      29     9.26238813     0.00000000
      30    11.03269687     0.00000000
      31    11.10453651     0.00000000
      32    13.00699472     0.00000000
      33    13.02766789     0.00000000
      34    13.87623755     0.00000000
#  Point 4      Spin 1:     0.00000000     0.25000000     0.00000000       0.14285714
#   Band    Energy [eV]     Occupation
       1   -51.67041230     1.00000000
       2   -51.65997363     1.00000000
       3   -26.42998038     1.00000000
       4   -26.42751137     1.00000000
       5   -26.31824852     1.00000000
       6   -26.31616698     1.00000000
       7   -26.27468917     1.00000000
       8   -26.25257908     1.00000000
       9   -11.09119981     1.00000000
      10   -10.21540757     1.00000000
      11    -9.65266256     1.00000000
      12    -9.56109871     1.00000000
      13     1.45288973     1.00000000
      14     1.74162089     1.00000000
      15     2.46815042     1.00000000
      16     3.06723023     1.00000000
      17     3.08133939     1.00000000
      18     3.94114655     1.00000000
      19     4.11877807     1.00000000
      20     4.91131707     1.00000000
      21     5.38354342     1.00000000
      22     5.74625449     1.00000000
      23     6.00831967     1.00000000
      24     6.59840217     1.00000000
      25     8.79512807     0.00000000
      26     9.11416123     0.00000000
      27     9.33120700     0.00000000
      28     9.39826593     0.00000000
      29     9.43613841     0.00000000
      30    10.88376210     0.00000000
      31    11.34952113     0.00000000
      32    12.92182636     0.00000000
      33    12.95337804     0.00000000
      34    13.64753176     0.00000000
#  Point 4      Spin 2:     0.00000000     0.25000000     0.00000000       0.14285714
#   Band    Energy [eV]     Occupation
       1   -51.67041230     1.00000000
       2   -51.65997363     1.00000000
       3   -26.42998038     1.00000000
       4   -26.42751137     1.00000000
       5   -26.31824852     1.00000000
       6   -26.31616698     1.00000000
       7   -26.27468917     1.00000000
       8   -26.25257908     1.00000000
       9   -11.09119981     1.00000000
      10   -10.21540757     1.00000000
      11    -9.65266256     1.00000000
      12    -9.56109871     1.00000000
      13     1.45288973     1.00000000
      14     1.74162089     1.00000000
      15     2.46815042     1.00000000
      16     3.06723023     1.00000000
      17     3.08133939     1.00000000
      18     3.94114655     1.00000000
      19     4.11877807     1.00000000
      20     4.91131707     1.00000000
      21     5.38354342     1.00000000
      22     5.74625449     1.00000000
      23     6.00831967     1.00000000
      24     6.59840217     1.00000000
      25     8.79512807     0.00000000
      26     9.11416123     0.00000000
      27     9.33120700     0.00000000
      28     9.39826593     0.00000000
      29     9.43613841     0.00000000
      30    10.88376210     0.00000000
      31    11.34952113     0.00000000
      32    12.92182636     0.00000000
      33    12.95337804     0.00000000
      34    13.64753176     0.00000000
#  Point 5      Spin 1:     0.00000000     0.33333333     0.00000000       0.14285714
#   Band    Energy [eV]     Occupation
       1   -51.66924970     1.00000000
       2   -51.66110908     1.00000000
       3   -26.41944958     1.00000000
       4   -26.41636513     1.00000000
       5   -26.33036221     1.00000000
       6   -26.32766364     1.00000000
       7   -26.27207828     1.00000000
       8   -26.25517878     1.00000000
       9   -10.94740525     1.00000000
      10   -10.29476639     1.00000000
      11    -9.70657769     1.00000000
      12    -9.60612300     1.00000000
      13     1.65274704     1.00000000
      14     1.86143568     1.00000000
      15     2.79106124     1.00000000
      16     3.08048779     1.00000000
      17     3.09550574     1.00000000
      18     3.78438980     1.00000000
      19     3.97718304     1.00000000
      20     4.83752296     1.00000000
      21     4.96870913     1.00000000
      22     5.55217399     1.00000000
      23     5.95459631     1.00000000
      24     6.43810530     1.00000000
      25     8.94260879     0.00000000
      26     9.19603303     0.00000000
      27     9.45311906     0.00000000
      28     9.52339465     0.00000000
      29     9.67254704     0.00000000
      30    10.67943136     0.00000000
      31    11.69852050     0.00000000
      32    12.83663224     0.00000000
      33    12.87169326     0.00000000
      34    13.33645855     0.00000000
#  Point 5      Spin 2:     0.00000000     0.33333333     0.00000000       0.14285714
#   Band    Energy [eV]     Occupation
       1   -51.66924970     1.00000000
       2   -51.66110908     1.00000000
       3   -26.41944958     1.00000000
       4   -26.41636513     1.00000000
       5   -26.33036221     1.00000000
       6   -26.32766364     1.00000000
       7   -26.27207828     1.00000000
       8   -26.25517878     1.00000000
       9   -10.94740525     1.00000000
      10   -10.29476639     1.00000000
      11    -9.70657769     1.00000000
      12    -9.60612300     1.00000000
      13     1.65274704     1.00000000
      14     1.86143568     1.00000000
      15     2.79106124     1.00000000
      16     3.08048779     1.00000000
      17     3.09550574     1.00000000
      18     3.78438980     1.00000000
      19     3.97718304     1.00000000
      20     4.83752296     1.00000000
      21     4.96870913     1.00000000
      22     5.55217399     1.00000000
      23     5.95459631     1.00000000
      24     6.43810530     1.00000000
      25     8.94260879     0.00000000
      26     9.19603303     0.00000000
      27     9.45311906     0.00000000
      28     9.52339465     0.00000000
      29     9.67254704     0.00000000
      30    10.67943136     0.00000000
      31    11.69852050     0.00000000
      32    12.83663224     0.00000000
      33    12.87169326     0.00000000
      34    13.33645855     0.00000000
#  Point 6      Spin 1:     0.00000000     0.41666667     0.00000000       0.14285714
#   Band    Energy [eV]     Occupation
       1   -51.66809448     1.00000000
       2   -51.66225404     1.00000000
       3   -26.40945378     1.00000000
       4   -26.40575932     1.00000000
       5   -26.34162671     1.00000000
       6   -26.33837106     1.00000000
       7   -26.26947121     1.00000000
       8   -26.25777707     1.00000000
       9   -10.77883765     1.00000000
      10   -10.42948413     1.00000000
      11    -9.71783261     1.00000000
      12    -9.65338280     1.00000000
      13     1.82754151     1.00000000
      14     1.94174246     1.00000000
      15     3.09229733     1.00000000
      16     3.10369528     1.00000000
      17     3.21050644     1.00000000
      18     3.68679188     1.00000000
      19     3.81932852     1.00000000
      20     4.27103163     1.00000000
      21     5.06249082     1.00000000
      22     5.36245217     1.00000000
      23     5.99430317     1.00000000
      24     6.26586971     1.00000000
      25     9.07093441     0.00000000
      26     9.21076471     0.00000000
      27     9.55649068     0.00000000
      28     9.60215779     0.00000000
      29     9.92749025     0.00000000
      30    10.44318284     0.00000000
      31    12.10894347     0.00000000
      32    12.77765256     0.00000000
      33    12.80319090     0.00000000
      34    12.96017231     0.00000000
#  Point 6      Spin 2:     0.00000000     0.41666667     0.00000000       0.14285714
#   Band    Energy [eV]     Occupation
       1   -51.66809448     1.00000000
       2   -51.66225404     1.00000000
       3   -26.40945378     1.00000000
       4   -26.40575932     1.00000000
       5   -26.34162671     1.00000000
       6   -26.33837106     1.00000000
       7   -26.26947121     1.00000000
       8   -26.25777707     1.00000000
       9   -10.77883765     1.00000000
      10   -10.42948413     1.00000000
      11    -9.71783261     1.00000000
      12    -9.65338280     1.00000000
      13     1.82754151     1.00000000
      14     1.94174246     1.00000000
      15     3.09229733     1.00000000
      16     3.10369528     1.00000000
      17     3.21050644     1.00000000
      18     3.68679188     1.00000000
      19     3.81932852     1.00000000
      20     4.27103163     1.00000000
      21     5.06249082     1.00000000
      22     5.36245217     1.00000000
      23     5.99430317     1.00000000
      24     6.26586971     1.00000000
      25     9.07093441     0.00000000
      26     9.21076471     0.00000000
      27     9.55649068     0.00000000
      28     9.60215779     0.00000000
      29     9.92749025     0.00000000
      30    10.44318284     0.00000000
      31    12.10894347     0.00000000
      32    12.77765256     0.00000000
      33    12.80319090     0.00000000
      34    12.96017231     0.00000000
#  Point 7      Spin 1:     0.00000000     0.50000000     0.00000000       0.14285714
#   Band    Energy [eV]     Occupation
       1   -51.66752540     1.00000000
       2   -51.66282048     1.00000000
       3   -26.40487090     1.00000000
       4   -26.40085645     1.00000000
       5   -26.34675644     1.00000000
       6   -26.34322324     1.00000000
       7   -26.26815747     1.00000000
       8   -26.25908748     1.00000000
       9   -10.60038246     1.00000000
      10   -10.59872994     1.00000000
      11    -9.69510797     1.00000000
      12    -9.69421634     1.00000000
      13     1.93324521     1.00000000
      14     1.93529627     1.00000000
      15     3.09784715     1.00000000
      16     3.10543816     1.00000000
      17     3.65872962     1.00000000
      18     3.65937975     1.00000000
      19     3.75669943     1.00000000
      20     3.75929688     1.00000000
      21     5.19144802     1.00000000
      22     5.19916745     1.00000000
      23     6.10806329     1.00000000
      24     6.10823534     1.00000000
      25     9.15821028     0.00000000
      26     9.17150545     0.00000000
      27     9.60849967     0.00000000
      28     9.61729234     0.00000000
      29    10.18624219     0.00000000
      30    10.19059286     0.00000000
      31    12.53262631     0.00000000
      32    12.55000359     0.00000000
      33    12.76003719     0.00000000
      34    12.77291063     0.00000000
#  Point 7      Spin 2:     0.00000000     0.50000000     0.00000000       0.14285714
#   Band    Energy [eV]     Occupation
       1   -51.66752540     1.00000000
       2   -51.66282048     1.00000000
       3   -26.40487090     1.00000000
       4   -26.40085645     1.00000000
       5   -26.34675644     1.00000000
       6   -26.34322324     1.00000000
       7   -26.26815747     1.00000000
       8   -26.25908748     1.00000000
       9   -10.60038246     1.00000000
      10   -10.59872994     1.00000000
      11    -9.69510797     1.00000000
      12    -9.69421634     1.00000000
      13     1.93324521     1.00000000
      14     1.93529627     1.00000000
      15     3.09784715     1.00000000
      16     3.10543816     1.00000000
      17     3.65872962     1.00000000
      18     3.65937975     1.00000000
      19     3.75669943     1.00000000
      20     3.75929688     1.00000000
      21     5.19144802     1.00000000
      22     5.19916745     1.00000000
      23     6.10806329     1.00000000
      24     6.10823534     1.00000000
      25     9.15821028     0.00000000
      26     9.17150545     0.00000000
      27     9.60849967     0.00000000
      28     9.61729234     0.00000000
      29    10.18624219     0.00000000
      30    10.19059286     0.00000000
      31    12.53262631     0.00000000
      32    12.55000359     0.00000000
      33    12.76003719     0.00000000
      34    12.77291063     0.00000000
 KPOINTS| Time for k-point line                                            0.126
 KPOINTS| Number of k-points in set    2                                       7
 KPOINTS| In units of b-vector [2pi/Bohr]
 KPOINTS| Special point     1           X     0.000000     0.500000     0.000000
 KPOINTS| Special point     2           M     0.500000     0.500000     0.000000
#  Point 1      Spin 1:     0.00000000     0.50000000     0.00000000       0.14285714
#   Band    Energy [eV]     Occupation
       1   -51.66752540     1.00000000
       2   -51.66282048     1.00000000
       3   -26.40487090     1.00000000
       4   -26.40085645     1.00000000
       5   -26.34675644     1.00000000
       6   -26.34322324     1.00000000
       7   -26.26815747     1.00000000
       8   -26.25908748     1.00000000
       9   -10.60038246     1.00000000
      10   -10.59872994     1.00000000
      11    -9.69510797     1.00000000
      12    -9.69421634     1.00000000
      13     1.93324521     1.00000000
      14     1.93529627     1.00000000
      15     3.09784715     1.00000000
      16     3.10543816     1.00000000
      17     3.65872962     1.00000000
      18     3.65937975     1.00000000
      19     3.75669943     1.00000000
      20     3.75929688     1.00000000
      21     5.19144802     1.00000000
      22     5.19916745     1.00000000
      23     6.10806329     1.00000000
      24     6.10823534     1.00000000
      25     9.15821028     0.00000000
      26     9.17150545     0.00000000
      27     9.60849967     0.00000000
      28     9.61729234     0.00000000
      29    10.18624219     0.00000000
      30    10.19059286     0.00000000
      31    12.53262631     0.00000000
      32    12.55000359     0.00000000
      33    12.76003719     0.00000000
      34    12.77291063     0.00000000
#  Point 1      Spin 2:     0.00000000     0.50000000     0.00000000       0.14285714
#   Band    Energy [eV]     Occupation
       1   -51.66752540     1.00000000
       2   -51.66282048     1.00000000
       3   -26.40487090     1.00000000
       4   -26.40085645     1.00000000
       5   -26.34675644     1.00000000
       6   -26.34322324     1.00000000
       7   -26.26815747     1.00000000
       8   -26.25908748     1.00000000
       9   -10.60038246     1.00000000
      10   -10.59872994     1.00000000
      11    -9.69510797     1.00000000
      12    -9.69421634     1.00000000
      13     1.93324521     1.00000000
      14     1.93529627     1.00000000
      15     3.09784715     1.00000000
      16     3.10543816     1.00000000
      17     3.65872962     1.00000000
      18     3.65937975     1.00000000
      19     3.75669943     1.00000000
      20     3.75929688     1.00000000
      21     5.19144802     1.00000000
      22     5.19916745     1.00000000
      23     6.10806329     1.00000000
      24     6.10823534     1.00000000
      25     9.15821028     0.00000000
      26     9.17150545     0.00000000
      27     9.60849967     0.00000000
      28     9.61729234     0.00000000
      29    10.18624219     0.00000000
      30    10.19059286     0.00000000
      31    12.53262631     0.00000000
      32    12.55000359     0.00000000
      33    12.76003719     0.00000000
      34    12.77291063     0.00000000
#  Point 2      Spin 1:     0.08333333     0.50000000     0.00000000       0.14285714
#   Band    Energy [eV]     Occupation
       1   -51.66752329     1.00000000
       2   -51.66281728     1.00000000
       3   -26.41067030     1.00000000
       4   -26.40731551     1.00000000
       5   -26.34028553     1.00000000
       6   -26.33741184     1.00000000
       7   -26.26814860     1.00000000
       8   -26.25907849     1.00000000
       9   -10.60486694     1.00000000
      10   -10.60317236     1.00000000
      11    -9.68859263     1.00000000
      12    -9.68766725     1.00000000
      13     1.88214828     1.00000000
      14     1.88451862     1.00000000
      15     3.08914429     1.00000000
      16     3.09671745     1.00000000
      17     3.56039162     1.00000000
      18     3.56113381     1.00000000
      19     3.96398710     1.00000000
      20     3.96649871     1.00000000
      21     5.21220187     1.00000000
      22     5.22004350     1.00000000
      23     6.05781129     1.00000000
      24     6.05804202     1.00000000
      25     9.12565307     0.00000000
      26     9.13911331     0.00000000
      27     9.57560797     0.00000000
      28     9.58434333     0.00000000
      29    10.20616266     0.00000000
      30    10.21053588     0.00000000
      31    12.50985089     0.00000000
      32    12.52774472     0.00000000
      33    12.78440874     0.00000000
      34    12.79716480     0.00000000
#  Point 2      Spin 2:     0.08333333     0.50000000     0.00000000       0.14285714
#   Band    Energy [eV]     Occupation
       1   -51.66752329     1.00000000
       2   -51.66281728     1.00000000
       3   -26.41067030     1.00000000
       4   -26.40731551     1.00000000
       5   -26.34028553     1.00000000
       6   -26.33741184     1.00000000
       7   -26.26814860     1.00000000
       8   -26.25907849     1.00000000
       9   -10.60486694     1.00000000
      10   -10.60317236     1.00000000
      11    -9.68859263     1.00000000
      12    -9.68766725     1.00000000
      13     1.88214828     1.00000000
      14     1.88451862     1.00000000
      15     3.08914429     1.00000000
      16     3.09671745     1.00000000
      17     3.56039162     1.00000000
      18     3.56113381     1.00000000
      19     3.96398710     1.00000000
      20     3.96649871     1.00000000
      21     5.21220187     1.00000000
      22     5.22004350     1.00000000
      23     6.05781129     1.00000000
      24     6.05804202     1.00000000
      25     9.12565307     0.00000000
      26     9.13911331     0.00000000
      27     9.57560797     0.00000000
      28     9.58434333     0.00000000
      29    10.20616266     0.00000000
      30    10.21053588     0.00000000
      31    12.50985089     0.00000000
      32    12.52774472     0.00000000
      33    12.78440874     0.00000000
      34    12.79716480     0.00000000
#  Point 3      Spin 1:     0.16666667     0.50000000     0.00000000       0.14285714
#   Band    Energy [eV]     Occupation
       1   -51.66752360     1.00000000
       2   -51.66281450     1.00000000
       3   -26.42312145     1.00000000
       4   -26.42060252     1.00000000
       5   -26.32696397     1.00000000
       6   -26.32492568     1.00000000
       7   -26.26812441     1.00000000
       8   -26.25905395     1.00000000
       9   -10.61675344     1.00000000
      10   -10.61495712     1.00000000
      11    -9.67096831     1.00000000
      12    -9.66996735     1.00000000
      13     1.75243274     1.00000000
      14     1.75530911     1.00000000
      15     3.06598038     1.00000000
      16     3.07350661     1.00000000
      17     3.54336220     1.00000000
      18     3.54377694     1.00000000
      19     4.27364811     1.00000000
      20     4.27649067     1.00000000
      21     5.26901724     1.00000000
      22     5.27719287     1.00000000
      23     5.92292360     1.00000000
      24     5.92335128     1.00000000
      25     9.03077676     0.00000000
      26     9.04468691     0.00000000
      27     9.48692905     0.00000000
      28     9.49554994     0.00000000
      29    10.25795306     0.00000000
      30    10.26233130     0.00000000
      31    12.45073875     0.00000000
      32    12.46999126     0.00000000
      33    12.84904683     0.00000000
      34    12.86151380     0.00000000
#  Point 3      Spin 2:     0.16666667     0.50000000     0.00000000       0.14285714
#   Band    Energy [eV]     Occupation
       1   -51.66752360     1.00000000
       2   -51.66281450     1.00000000
       3   -26.42312145     1.00000000
       4   -26.42060252     1.00000000
       5   -26.32696397     1.00000000
       6   -26.32492568     1.00000000
       7   -26.26812441     1.00000000
       8   -26.25905395     1.00000000
       9   -10.61675344     1.00000000
      10   -10.61495712     1.00000000
      11    -9.67096831     1.00000000
      12    -9.66996735     1.00000000
      13     1.75243274     1.00000000
      14     1.75530911     1.00000000
      15     3.06598038     1.00000000
      16     3.07350661     1.00000000
      17     3.54336220     1.00000000
      18     3.54377694     1.00000000
      19     4.27364811     1.00000000
      20     4.27649067     1.00000000
      21     5.26901724     1.00000000
      22     5.27719287     1.00000000
      23     5.92292360     1.00000000
      24     5.92335128     1.00000000
      25     9.03077676     0.00000000
      26     9.04468691     0.00000000
      27     9.48692905     0.00000000
      28     9.49554994     0.00000000
      29    10.25795306     0.00000000
      30    10.26233130     0.00000000
      31    12.45073875     0.00000000
      32    12.46999126     0.00000000
      33    12.84904683     0.00000000
      34    12.86151380     0.00000000
#  Point 4      Spin 1:     0.25000000     0.50000000     0.00000000       0.14285714
#   Band    Energy [eV]     Occupation
       1   -51.66753987     1.00000000
       2   -51.66282621     1.00000000
       3   -26.43619402     1.00000000
       4   -26.43417033     1.00000000
       5   -26.31334182     1.00000000
       6   -26.31179799     1.00000000
       7   -26.26809142     1.00000000
       8   -26.25902046     1.00000000
       9   -10.63221710     1.00000000
      10   -10.63030576     1.00000000
      11    -9.64711588     1.00000000
      12    -9.64603985     1.00000000
      13     1.59431069     1.00000000
      14     1.59751828     1.00000000
      15     3.03566850     1.00000000
      16     3.04313458     1.00000000
      17     3.62565093     1.00000000
      18     3.62597066     1.00000000
      19     4.57592577     1.00000000
      20     4.57871615     1.00000000
      21     5.34714815     1.00000000
      22     5.35578709     1.00000000
      23     5.75335625     1.00000000
      24     5.75427829     1.00000000
      25     8.88521634     0.00000000
      26     8.89975915     0.00000000
      27     9.36796163     0.00000000
      28     9.37651581     0.00000000
      29    10.32243221     0.00000000
      30    10.32676419     0.00000000
      31    12.37679277     0.00000000
      32    12.39779526     0.00000000
      33    12.93324819     0.00000000
      34    12.94538204     0.00000000
#  Point 4      Spin 2:     0.25000000     0.50000000     0.00000000       0.14285714
#   Band    Energy [eV]     Occupation
       1   -51.66753987     1.00000000
       2   -51.66282621     1.00000000
       3   -26.43619402     1.00000000
       4   -26.43417033     1.00000000
       5   -26.31334182     1.00000000
       6   -26.31179799     1.00000000
       7   -26.26809142     1.00000000
       8   -26.25902046     1.00000000
       9   -10.63221710     1.00000000
      10   -10.63030576     1.00000000
      11    -9.64711588     1.00000000
      12    -9.64603985     1.00000000
      13     1.59431069     1.00000000
      14     1.59751828     1.00000000
      15     3.03566850     1.00000000
      16     3.04313458     1.00000000
      17     3.62565093     1.00000000
      18     3.62597066     1.00000000
      19     4.57592577     1.00000000
      20     4.57871615     1.00000000
      21     5.34714815     1.00000000
      22     5.35578709     1.00000000
      23     5.75335625     1.00000000
      24     5.75427829     1.00000000
      25     8.88521634     0.00000000
      26     8.89975915     0.00000000
      27     9.36796163     0.00000000
      28     9.37651581     0.00000000
      29    10.32243221     0.00000000
      30    10.32676419     0.00000000
      31    12.37679277     0.00000000
      32    12.39779526     0.00000000
      33    12.93324819     0.00000000
      34    12.94538204     0.00000000
#  Point 5      Spin 1:     0.33333333     0.50000000     0.00000000       0.14285714
#   Band    Energy [eV]     Occupation
       1   -51.66757744     1.00000000
       2   -51.66285878     1.00000000
       3   -26.44692859     1.00000000
       4   -26.44517373     1.00000000
       5   -26.30227056     1.00000000
       6   -26.30099457     1.00000000
       7   -26.26805849     1.00000000
       8   -26.25898700     1.00000000
       9   -10.64691004     1.00000000
      10   -10.64490369     1.00000000
      11    -9.62317652     1.00000000
      12    -9.62204756     1.00000000
      13     1.45289847     1.00000000
      14     1.45627727     1.00000000
      15     3.00673146     1.00000000
      16     3.01414144     1.00000000
      17     3.77484160     1.00000000
      18     3.77523948     1.00000000
      19     4.75745681     1.00000000
      20     4.75937176     1.00000000
      21     5.42627560     1.00000000
      22     5.43539612     1.00000000
      23     5.64661793     1.00000000
      24     5.64873588     1.00000000
      25     8.71647384     0.00000000
      26     8.73171297     0.00000000
      27     9.25062019     0.00000000
      28     9.25920143     0.00000000
      29    10.37963065     0.00000000
      30    10.38391733     0.00000000
      31    12.30990341     0.00000000
      32    12.33255376     0.00000000
      33    13.01337460     0.00000000
      34    13.02523123     0.00000000
#  Point 5      Spin 2:     0.33333333     0.50000000     0.00000000       0.14285714
#   Band    Energy [eV]     Occupation
       1   -51.66757744     1.00000000
       2   -51.66285878     1.00000000
       3   -26.44692859     1.00000000
       4   -26.44517373     1.00000000
       5   -26.30227056     1.00000000
       6   -26.30099457     1.00000000
       7   -26.26805849     1.00000000
       8   -26.25898700     1.00000000
       9   -10.64691004     1.00000000
      10   -10.64490369     1.00000000
      11    -9.62317652     1.00000000
      12    -9.62204756     1.00000000
      13     1.45289847     1.00000000
      14     1.45627727     1.00000000
      15     3.00673146     1.00000000
      16     3.01414144     1.00000000
      17     3.77484160     1.00000000
      18     3.77523948     1.00000000
      19     4.75745681     1.00000000
      20     4.75937176     1.00000000
      21     5.42627560     1.00000000
      22     5.43539612     1.00000000
      23     5.64661793     1.00000000
      24     5.64873588     1.00000000
      25     8.71647384     0.00000000
      26     8.73171297     0.00000000
      27     9.25062019     0.00000000
      28     9.25920143     0.00000000
      29    10.37963065     0.00000000
      30    10.38391733     0.00000000
      31    12.30990341     0.00000000
      32    12.33255376     0.00000000
      33    13.01337460     0.00000000
      34    13.02523123     0.00000000
#  Point 6      Spin 1:     0.41666667     0.50000000     0.00000000       0.14285714
#   Band    Energy [eV]     Occupation
       1   -51.66762170     1.00000000
       2   -51.66289899     1.00000000
       3   -26.45385566     1.00000000
       4   -26.45223501     1.00000000
       5   -26.29514534     1.00000000
       6   -26.29400268     1.00000000
       7   -26.26803440     1.00000000
       8   -26.25896252     1.00000000
       9   -10.65724256     1.00000000
      10   -10.65517624     1.00000000
      11    -9.60532873     1.00000000
      12    -9.60417127     1.00000000
      13     1.35750253     1.00000000
      14     1.36096100     1.00000000
      15     2.98633297     1.00000000
      16     2.99370416     1.00000000
      17     3.94333242     1.00000000
      18     3.94392494     1.00000000
      19     4.73818719     1.00000000
      20     4.73901534     1.00000000
      21     5.48509620     1.00000000
      22     5.49458753     1.00000000
      23     5.67427767     1.00000000
      24     5.67771890     1.00000000
      25     8.57317863     0.00000000
      26     8.58902433     0.00000000
      27     9.16524462     0.00000000
      28     9.17390251     0.00000000
      29    10.41681324     0.00000000
      30    10.42108367     0.00000000
      31    12.26492127     0.00000000
      32    12.28872272     0.00000000
      33    13.06978020     0.00000000
      34    13.08146216     0.00000000
#  Point 6      Spin 2:     0.41666667     0.50000000     0.00000000       0.14285714
#   Band    Energy [eV]     Occupation
       1   -51.66762170     1.00000000
       2   -51.66289899     1.00000000
       3   -26.45385566     1.00000000
       4   -26.45223501     1.00000000
       5   -26.29514534     1.00000000
       6   -26.29400268     1.00000000
       7   -26.26803440     1.00000000
       8   -26.25896252     1.00000000
       9   -10.65724256     1.00000000
      10   -10.65517624     1.00000000
      11    -9.60532873     1.00000000
      12    -9.60417127     1.00000000
      13     1.35750253     1.00000000
      14     1.36096100     1.00000000
      15     2.98633297     1.00000000
      16     2.99370416     1.00000000
      17     3.94333242     1.00000000
      18     3.94392494     1.00000000
      19     4.73818719     1.00000000
      20     4.73901534     1.00000000
      21     5.48509620     1.00000000
      22     5.49458753     1.00000000
      23     5.67427767     1.00000000
      24     5.67771890     1.00000000
      25     8.57317863     0.00000000
      26     8.58902433     0.00000000
      27     9.16524462     0.00000000
      28     9.17390251     0.00000000
      29    10.41681324     0.00000000
      30    10.42108367     0.00000000
      31    12.26492127     0.00000000
      32    12.28872272     0.00000000
      33    13.06978020     0.00000000
      34    13.08146216     0.00000000
#  Point 7      Spin 1:     0.50000000     0.50000000     0.00000000       0.14285714
#   Band    Energy [eV]     Occupation
       1   -51.66764228     1.00000000
       2   -51.66291798     1.00000000
       3   -26.45624002     1.00000000
       4   -26.45466027     1.00000000
       5   -26.29269230     1.00000000
       6   -26.29159019     1.00000000
       7   -26.26802559     1.00000000
       8   -26.25895356     1.00000000
       9   -10.66094370     1.00000000
      10   -10.65885711     1.00000000
      11    -9.59867532     1.00000000
      12    -9.59750922     1.00000000
      13     1.32400635     1.00000000
      14     1.32748837     1.00000000
      15     2.97902079     1.00000000
      16     2.98637822     1.00000000
      17     4.03159182     1.00000000
      18     4.03235395     1.00000000
      19     4.67896612     1.00000000
      20     4.67956067     1.00000000
      21     5.50685882     1.00000000
      22     5.51649088     1.00000000
      23     5.71416518     1.00000000
      24     5.71803289     1.00000000
      25     8.51527044     0.00000000
      26     8.53137667     0.00000000
      27     9.13403100     0.00000000
      28     9.14272897     0.00000000
      29    10.42940855     0.00000000
      30    10.43367746     0.00000000
      31    12.24921969     0.00000000
      32    12.27343209     0.00000000
      33    13.08999330     0.00000000
      34    13.10161644     0.00000000
#  Point 7      Spin 2:     0.50000000     0.50000000     0.00000000       0.14285714
#   Band    Energy [eV]     Occupation
       1   -51.66764228     1.00000000
       2   -51.66291798     1.00000000
       3   -26.45624002     1.00000000
       4   -26.45466027     1.00000000
       5   -26.29269230     1.00000000
       6   -26.29159019     1.00000000
       7   -26.26802559     1.00000000
       8   -26.25895356     1.00000000
       9   -10.66094370     1.00000000
      10   -10.65885711     1.00000000
      11    -9.59867532     1.00000000
      12    -9.59750922     1.00000000
      13     1.32400635     1.00000000
      14     1.32748837     1.00000000
      15     2.97902079     1.00000000
      16     2.98637822     1.00000000
      17     4.03159182     1.00000000
      18     4.03235395     1.00000000
      19     4.67896612     1.00000000
      20     4.67956067     1.00000000
      21     5.50685882     1.00000000
      22     5.51649088     1.00000000
      23     5.71416518     1.00000000
      24     5.71803289     1.00000000
      25     8.51527044     0.00000000
      26     8.53137667     0.00000000
      27     9.13403100     0.00000000
      28     9.14272897     0.00000000
      29    10.42940855     0.00000000
      30    10.43367746     0.00000000
      31    12.24921969     0.00000000
      32    12.27343209     0.00000000
      33    13.08999330     0.00000000
      34    13.10161644     0.00000000
 KPOINTS| Time for k-point line                                            0.121
 KPOINTS| Number of k-points in set    3                                       9
 KPOINTS| In units of b-vector [2pi/Bohr]
 KPOINTS| Special point     1           M     0.500000     0.500000     0.000000
 KPOINTS| Special point     2       GAMMA     0.000000     0.000000     0.000000
#  Point 1      Spin 1:     0.50000000     0.50000000     0.00000000       0.11111111
#   Band    Energy [eV]     Occupation
       1   -51.66764228     1.00000000
       2   -51.66291798     1.00000000
       3   -26.45624002     1.00000000
       4   -26.45466027     1.00000000
       5   -26.29269230     1.00000000
       6   -26.29159019     1.00000000
       7   -26.26802559     1.00000000
       8   -26.25895356     1.00000000
       9   -10.66094370     1.00000000
      10   -10.65885711     1.00000000
      11    -9.59867532     1.00000000
      12    -9.59750922     1.00000000
      13     1.32400635     1.00000000
      14     1.32748837     1.00000000
      15     2.97902079     1.00000000
      16     2.98637822     1.00000000
      17     4.03159182     1.00000000
      18     4.03235395     1.00000000
      19     4.67896612     1.00000000
      20     4.67956067     1.00000000
      21     5.50685882     1.00000000
      22     5.51649088     1.00000000
      23     5.71416518     1.00000000
      24     5.71803289     1.00000000
      25     8.51527044     0.00000000
      26     8.53137667     0.00000000
      27     9.13403100     0.00000000
      28     9.14272897     0.00000000
      29    10.42940855     0.00000000
      30    10.43367746     0.00000000
      31    12.24921969     0.00000000
      32    12.27343209     0.00000000
      33    13.08999330     0.00000000
      34    13.10161644     0.00000000
#  Point 1      Spin 2:     0.50000000     0.50000000     0.00000000       0.11111111
#   Band    Energy [eV]     Occupation
       1   -51.66764228     1.00000000
       2   -51.66291798     1.00000000
       3   -26.45624002     1.00000000
       4   -26.45466027     1.00000000
       5   -26.29269230     1.00000000
       6   -26.29159019     1.00000000
       7   -26.26802559     1.00000000
       8   -26.25895356     1.00000000
       9   -10.66094370     1.00000000
      10   -10.65885711     1.00000000
      11    -9.59867532     1.00000000
      12    -9.59750922     1.00000000
      13     1.32400635     1.00000000
      14     1.32748837     1.00000000
      15     2.97902079     1.00000000
      16     2.98637822     1.00000000
      17     4.03159182     1.00000000
      18     4.03235395     1.00000000
      19     4.67896612     1.00000000
      20     4.67956067     1.00000000
      21     5.50685882     1.00000000
      22     5.51649088     1.00000000
      23     5.71416518     1.00000000
      24     5.71803289     1.00000000
      25     8.51527044     0.00000000
      26     8.53137667     0.00000000
      27     9.13403100     0.00000000
      28     9.14272897     0.00000000
      29    10.42940855     0.00000000
      30    10.43367746     0.00000000
      31    12.24921969     0.00000000
      32    12.27343209     0.00000000
      33    13.08999330     0.00000000
      34    13.10161644     0.00000000
#  Point 2      Spin 1:     0.43750000     0.43750000     0.00000000       0.11111111
#   Band    Energy [eV]     Occupation
       1   -51.66763823     1.00000000
       2   -51.66287774     1.00000000
       3   -26.45426383     1.00000000
       4   -26.45130703     1.00000000
       5   -26.29671002     1.00000000
       6   -26.29294884     1.00000000
       7   -26.26807058     1.00000000
       8   -26.25892826     1.00000000
       9   -10.67992273     1.00000000
      10   -10.63180718     1.00000000
      11    -9.61645636     1.00000000
      12    -9.59415771     1.00000000
      13     1.32474712     1.00000000
      14     1.40118036     1.00000000
      15     2.98880612     1.00000000
      16     2.99282864     1.00000000
      17     3.83880944     1.00000000
      18     4.04203706     1.00000000
      19     4.64561992     1.00000000
      20     4.84387105     1.00000000
      21     5.45239123     1.00000000
      22     5.52347533     1.00000000
      23     5.54986486     1.00000000
      24     5.78688475     1.00000000
      25     8.51937534     0.00000000
      26     8.65020576     0.00000000
      27     9.13318694     0.00000000
      28     9.21168854     0.00000000
      29    10.38243624     0.00000000
      30    10.45272311     0.00000000
      31    12.22338197     0.00000000
      32    12.33369413     0.00000000
      33    13.04546540     0.00000000
      34    13.10165265     0.00000000
#  Point 2      Spin 2:     0.43750000     0.43750000     0.00000000       0.11111111
#   Band    Energy [eV]     Occupation
       1   -51.66763823     1.00000000
       2   -51.66287774     1.00000000
       3   -26.45426383     1.00000000
       4   -26.45130703     1.00000000
       5   -26.29671002     1.00000000
       6   -26.29294884     1.00000000
       7   -26.26807058     1.00000000
       8   -26.25892826     1.00000000
       9   -10.67992273     1.00000000
      10   -10.63180718     1.00000000
      11    -9.61645636     1.00000000
      12    -9.59415771     1.00000000
      13     1.32474712     1.00000000
      14     1.40118036     1.00000000
      15     2.98880612     1.00000000
      16     2.99282864     1.00000000
      17     3.83880944     1.00000000
      18     4.04203706     1.00000000
      19     4.64561992     1.00000000
      20     4.84387105     1.00000000
      21     5.45239123     1.00000000
      22     5.52347533     1.00000000
      23     5.54986486     1.00000000
      24     5.78688475     1.00000000
      25     8.51937534     0.00000000
      26     8.65020576     0.00000000
      27     9.13318694     0.00000000
      28     9.21168854     0.00000000
      29    10.38243624     0.00000000
      30    10.45272311     0.00000000
      31    12.22338197     0.00000000
      32    12.33369413     0.00000000
      33    13.04546540     0.00000000
      34    13.10165265     0.00000000
#  Point 3      Spin 1:     0.37500000     0.37500000     0.00000000       0.11111111
#   Band    Energy [eV]     Occupation
       1   -51.66777952     1.00000000
       2   -51.66264406     1.00000000
       3   -26.45313533     1.00000000
       4   -26.43751936     1.00000000
       5   -26.31084401     1.00000000
       6   -26.29367778     1.00000000
       7   -26.26852810     1.00000000
       8   -26.25852360     1.00000000
       9   -10.74131818     1.00000000
      10   -10.55039839     1.00000000
      11    -9.65967678     1.00000000
      12    -9.58402895     1.00000000
      13     1.32304746     1.00000000
      14     1.60259836     1.00000000
      15     2.99572779     1.00000000
      16     3.02859566     1.00000000
      17     3.48432225     1.00000000
      18     4.03331027     1.00000000
      19     4.56763378     1.00000000
      20     5.12427851     1.00000000
      21     5.21248215     1.00000000
      22     5.31367204     1.00000000
      23     5.54884533     1.00000000
      24     5.97099064     1.00000000
      25     8.52962479     0.00000000
      26     8.89497914     0.00000000
      27     9.13078631     0.00000000
      28     9.37904316     0.00000000
      29    10.24131019     0.00000000
      30    10.51560169     0.00000000
      31    12.08474663     0.00000000
      32    12.56371926     0.00000000
      33    12.93299528     0.00000000
      34    13.10171846     0.00000000
#  Point 3      Spin 2:     0.37500000     0.37500000     0.00000000       0.11111111
#   Band    Energy [eV]     Occupation
       1   -51.66777952     1.00000000
       2   -51.66264406     1.00000000
       3   -26.45313533     1.00000000
       4   -26.43751936     1.00000000
       5   -26.31084401     1.00000000
       6   -26.29367778     1.00000000
       7   -26.26852810     1.00000000
       8   -26.25852360     1.00000000
       9   -10.74131818     1.00000000
      10   -10.55039839     1.00000000
      11    -9.65967678     1.00000000
      12    -9.58402895     1.00000000
      13     1.32304746     1.00000000
      14     1.60259836     1.00000000
      15     2.99572779     1.00000000
      16     3.02859566     1.00000000
      17     3.48432225     1.00000000
      18     4.03331027     1.00000000
      19     4.56763378     1.00000000
      20     5.12427851     1.00000000
      21     5.21248215     1.00000000
      22     5.31367204     1.00000000
      23     5.54884533     1.00000000
      24     5.97099064     1.00000000
      25     8.52962479     0.00000000
      26     8.89497914     0.00000000
      27     9.13078631     0.00000000
      28     9.37904316     0.00000000
      29    10.24131019     0.00000000
      30    10.51560169     0.00000000
      31    12.08474663     0.00000000
      32    12.56371926     0.00000000
      33    12.93299528     0.00000000
      34    13.10171846     0.00000000
#  Point 4      Spin 1:     0.31250000     0.31250000     0.00000000       0.11111111
#   Band    Energy [eV]     Occupation
       1   -51.66832290     1.00000000
       2   -51.66202800     1.00000000
       3   -26.45144709     1.00000000
       4   -26.41866630     1.00000000
       5   -26.32981027     1.00000000
       6   -26.29476392     1.00000000
       7   -26.26989261     1.00000000
       8   -26.25722916     1.00000000
       9   -10.83829993     1.00000000
      10   -10.43334885     1.00000000
      11    -9.70414016     1.00000000
      12    -9.56777048     1.00000000
      13     1.31891714     1.00000000
      14     1.85278020     1.00000000
      15     3.00610761     1.00000000
      16     3.07051909     1.00000000
      17     3.11357225     1.00000000
      18     3.90297015     1.00000000
      19     4.47990048     1.00000000
      20     5.03525198     1.00000000
      21     5.14980149     1.00000000
      22     5.40366913     1.00000000
      23     5.59715004     1.00000000
      24     6.20094435     1.00000000
      25     8.54295577     0.00000000
      26     9.10714549     0.00000000
      27     9.12719727     0.00000000
      28     9.54961357     0.00000000
      29    10.02770488     0.00000000
      30    10.61691520     0.00000000
      31    11.86824450     0.00000000
      32    12.81196211     0.00000000
      33    12.89556240     0.00000000
      34    13.10170486     0.00000000
#  Point 4      Spin 2:     0.31250000     0.31250000     0.00000000       0.11111111
#   Band    Energy [eV]     Occupation
       1   -51.66832290     1.00000000
       2   -51.66202800     1.00000000
       3   -26.45144709     1.00000000
       4   -26.41866630     1.00000000
       5   -26.32981027     1.00000000
       6   -26.29476392     1.00000000
       7   -26.26989261     1.00000000
       8   -26.25722916     1.00000000
       9   -10.83829993     1.00000000
      10   -10.43334885     1.00000000
      11    -9.70414016     1.00000000
      12    -9.56777048     1.00000000
      13     1.31891714     1.00000000
      14     1.85278020     1.00000000
      15     3.00610761     1.00000000
      16     3.07051909     1.00000000
      17     3.11357225     1.00000000
      18     3.90297015     1.00000000
      19     4.47990048     1.00000000
      20     5.03525198     1.00000000
      21     5.14980149     1.00000000
      22     5.40366913     1.00000000
      23     5.59715004     1.00000000
      24     6.20094435     1.00000000
      25     8.54295577     0.00000000
      26     9.10714549     0.00000000
      27     9.12719727     0.00000000
      28     9.54961357     0.00000000
      29    10.02770488     0.00000000
      30    10.61691520     0.00000000
      31    11.86824450     0.00000000
      32    12.81196211     0.00000000
      33    12.89556240     0.00000000
      34    13.10170486     0.00000000
#  Point 5      Spin 1:     0.25000000     0.25000000     0.00000000       0.11111111
#   Band    Energy [eV]     Occupation
       1   -51.66925391     1.00000000
       2   -51.66107641     1.00000000
       3   -26.44945547     1.00000000
       4   -26.40515199     1.00000000
       5   -26.34292638     1.00000000
       6   -26.29603661     1.00000000
       7   -26.27205456     1.00000000
       8   -26.25513525     1.00000000
       9   -10.95887847     1.00000000
      10   -10.31163897     1.00000000
      11    -9.71987990     1.00000000
      12    -9.54752614     1.00000000
      13     1.30936202     1.00000000
      14     1.99528707     1.00000000
      15     2.77048483     1.00000000
      16     3.01838313     1.00000000
      17     3.09821806     1.00000000
      18     3.74071689     1.00000000
      19     4.40186602     1.00000000
      20     5.01252600     1.00000000
      21     5.15078804     1.00000000
      22     5.66886920     1.00000000
      23     5.67549873     1.00000000
      24     6.42258671     1.00000000
      25     8.55515022     0.00000000
      26     9.12295644     0.00000000
      27     9.21178840     0.00000000
      28     9.62112284     0.00000000
      29     9.77017200     0.00000000
      30    10.75018468     0.00000000
      31    11.60179262     0.00000000
      32    12.75821420     0.00000000
      33    13.10149280     0.00000000
      34    13.26128461     0.00000000
#  Point 5      Spin 2:     0.25000000     0.25000000     0.00000000       0.11111111
#   Band    Energy [eV]     Occupation
       1   -51.66925391     1.00000000
       2   -51.66107641     1.00000000
       3   -26.44945547     1.00000000
       4   -26.40515199     1.00000000
       5   -26.34292638     1.00000000
       6   -26.29603661     1.00000000
       7   -26.27205456     1.00000000
       8   -26.25513525     1.00000000
       9   -10.95887847     1.00000000
      10   -10.31163897     1.00000000
      11    -9.71987990     1.00000000
      12    -9.54752614     1.00000000
      13     1.30936202     1.00000000
      14     1.99528707     1.00000000
      15     2.77048483     1.00000000
      16     3.01838313     1.00000000
      17     3.09821806     1.00000000
      18     3.74071689     1.00000000
      19     4.40186602     1.00000000
      20     5.01252600     1.00000000
      21     5.15078804     1.00000000
      22     5.66886920     1.00000000
      23     5.67549873     1.00000000
      24     6.42258671     1.00000000
      25     8.55515022     0.00000000
      26     9.12295644     0.00000000
      27     9.21178840     0.00000000
      28     9.62112284     0.00000000
      29     9.77017200     0.00000000
      30    10.75018468     0.00000000
      31    11.60179262     0.00000000
      32    12.75821420     0.00000000
      33    13.10149280     0.00000000
      34    13.26128461     0.00000000
#  Point 6      Spin 1:     0.18750000     0.18750000     0.00000000       0.11111111
#   Band    Energy [eV]     Occupation
       1   -51.67032278     1.00000000
       2   -51.66003637     1.00000000
       3   -26.44746234     1.00000000
       4   -26.41201586     1.00000000
       5   -26.33510608     1.00000000
       6   -26.29729863     1.00000000
       7   -26.27447724     1.00000000
       8   -26.25276407     1.00000000
       9   -11.08412253     1.00000000
      10   -10.22429728     1.00000000
      11    -9.68178011     1.00000000
      12    -9.52650587     1.00000000
      13     1.28652255     1.00000000
      14     1.89548253     1.00000000
      15     2.47994805     1.00000000
      16     3.03069242     1.00000000
      17     3.09890581     1.00000000
      18     3.79971066     1.00000000
      19     4.34066067     1.00000000
      20     4.92602772     1.00000000
      21     5.44670587     1.00000000
      22     5.78736513     1.00000000
      23     5.91488090     1.00000000
      24     6.60320639     1.00000000
      25     8.56178782     0.00000000
      26     9.11868684     0.00000000
      27     9.18551264     0.00000000
      28     9.50299746     0.00000000
      29     9.54570953     0.00000000
      30    10.90078652     0.00000000
      31    11.32806824     0.00000000
      32    12.81022924     0.00000000
      33    13.10103358     0.00000000
      34    13.59529812     0.00000000
#  Point 6      Spin 2:     0.18750000     0.18750000     0.00000000       0.11111111
#   Band    Energy [eV]     Occupation
       1   -51.67032278     1.00000000
       2   -51.66003637     1.00000000
       3   -26.44746234     1.00000000
       4   -26.41201586     1.00000000
       5   -26.33510608     1.00000000
       6   -26.29729863     1.00000000
       7   -26.27447724     1.00000000
       8   -26.25276407     1.00000000
       9   -11.08412253     1.00000000
      10   -10.22429728     1.00000000
      11    -9.68178011     1.00000000
      12    -9.52650587     1.00000000
      13     1.28652255     1.00000000
      14     1.89548253     1.00000000
      15     2.47994805     1.00000000
      16     3.03069242     1.00000000
      17     3.09890581     1.00000000
      18     3.79971066     1.00000000
      19     4.34066067     1.00000000
      20     4.92602772     1.00000000
      21     5.44670587     1.00000000
      22     5.78736513     1.00000000
      23     5.91488090     1.00000000
      24     6.60320639     1.00000000
      25     8.56178782     0.00000000
      26     9.11868684     0.00000000
      27     9.18551264     0.00000000
      28     9.50299746     0.00000000
      29     9.54570953     0.00000000
      30    10.90078652     0.00000000
      31    11.32806824     0.00000000
      32    12.81022924     0.00000000
      33    13.10103358     0.00000000
      34    13.59529812     0.00000000
#  Point 7      Spin 1:     0.12500000     0.12500000     0.00000000       0.11111111
#   Band    Energy [eV]     Occupation
       1   -51.67127334     1.00000000
       2   -51.65915014     1.00000000
       3   -26.44577071     1.00000000
       4   -26.42854923     1.00000000
       5   -26.31726372     1.00000000
       6   -26.29835897     1.00000000
       7   -26.27662521     1.00000000
       8   -26.25064625     1.00000000
       9   -11.19257654     1.00000000
      10   -10.18541915     1.00000000
      11    -9.60017885     1.00000000
      12    -9.50821928     1.00000000
      13     1.23252941     1.00000000
      14     1.68748298     1.00000000
      15     2.25975378     1.00000000
      16     3.04115376     1.00000000
      17     3.07782987     1.00000000
      18     4.01132405     1.00000000
      19     4.29775891     1.00000000
      20     4.88506267     1.00000000
      21     5.82758150     1.00000000
      22     5.92110149     1.00000000
      23     6.12814862     1.00000000
      24     6.72761522     1.00000000
      25     8.55707436     0.00000000
      26     9.03946769     0.00000000
      27     9.11502361     0.00000000
      28     9.26470382     0.00000000
      29     9.36865852     0.00000000
      30    11.04370641     0.00000000
      31    11.09597859     0.00000000
      32    12.93059454     0.00000000
      33    13.10041780     0.00000000
      34    13.85164729     0.00000000
#  Point 7      Spin 2:     0.12500000     0.12500000     0.00000000       0.11111111
#   Band    Energy [eV]     Occupation
       1   -51.67127334     1.00000000
       2   -51.65915014     1.00000000
       3   -26.44577071     1.00000000
       4   -26.42854923     1.00000000
       5   -26.31726372     1.00000000
       6   -26.29835897     1.00000000
       7   -26.27662521     1.00000000
       8   -26.25064625     1.00000000
       9   -11.19257654     1.00000000
      10   -10.18541915     1.00000000
      11    -9.60017885     1.00000000
      12    -9.50821928     1.00000000
      13     1.23252941     1.00000000
      14     1.68748298     1.00000000
      15     2.25975378     1.00000000
      16     3.04115376     1.00000000
      17     3.07782987     1.00000000
      18     4.01132405     1.00000000
      19     4.29775891     1.00000000
      20     4.88506267     1.00000000
      21     5.82758150     1.00000000
      22     5.92110149     1.00000000
      23     6.12814862     1.00000000
      24     6.72761522     1.00000000
      25     8.55707436     0.00000000
      26     9.03946769     0.00000000
      27     9.11502361     0.00000000
      28     9.26470382     0.00000000
      29     9.36865852     0.00000000
      30    11.04370641     0.00000000
      31    11.09597859     0.00000000
      32    12.93059454     0.00000000
      33    13.10041780     0.00000000
      34    13.85164729     0.00000000
#  Point 8      Spin 1:     0.06250000     0.06250000     0.00000000       0.11111111
#   Band    Energy [eV]     Occupation
       1   -51.67191949     1.00000000
       2   -51.65857706     1.00000000
       3   -26.44463918     1.00000000
       4   -26.44137061     1.00000000
       5   -26.30320194     1.00000000
       6   -26.29906207     1.00000000
       7   -26.27808700     1.00000000
       8   -26.24919750     1.00000000
       9   -11.26571596     1.00000000
      10   -10.17479365     1.00000000
      11    -9.52318456     1.00000000
      12    -9.49579338     1.00000000
      13     1.14498831     1.00000000
      14     1.55758063     1.00000000
      15     2.12252493     1.00000000
      16     3.04815692     1.00000000
      17     3.05346558     1.00000000
      18     4.19663347     1.00000000
      19     4.27260617     1.00000000
      20     4.87063152     1.00000000
      21     6.03924023     1.00000000
      22     6.18476129     1.00000000
      23     6.28221262     1.00000000
      24     6.79419160     1.00000000
      25     8.52949595     0.00000000
      26     8.85583017     0.00000000
      27     9.09661089     0.00000000
      28     9.11254199     0.00000000
      29     9.19337470     0.00000000
      30    10.94344084     0.00000000
      31    11.14776285     0.00000000
      32    13.04322127     0.00000000
      33    13.09987354     0.00000000
      34    14.00530572     0.00000000
#  Point 8      Spin 2:     0.06250000     0.06250000     0.00000000       0.11111111
#   Band    Energy [eV]     Occupation
       1   -51.67191949     1.00000000
       2   -51.65857706     1.00000000
       3   -26.44463918     1.00000000
       4   -26.44137061     1.00000000
       5   -26.30320194     1.00000000
       6   -26.29906207     1.00000000
       7   -26.27808700     1.00000000
       8   -26.24919750     1.00000000
       9   -11.26571596     1.00000000
      10   -10.17479365     1.00000000
      11    -9.52318456     1.00000000
      12    -9.49579338     1.00000000
      13     1.14498831     1.00000000
      14     1.55758063     1.00000000
      15     2.12252493     1.00000000
      16     3.04815692     1.00000000
      17     3.05346558     1.00000000
      18     4.19663347     1.00000000
      19     4.27260617     1.00000000
      20     4.87063152     1.00000000
      21     6.03924023     1.00000000
      22     6.18476129     1.00000000
      23     6.28221262     1.00000000
      24     6.79419160     1.00000000
      25     8.52949595     0.00000000
      26     8.85583017     0.00000000
      27     9.09661089     0.00000000
      28     9.11254199     0.00000000
      29     9.19337470     0.00000000
      30    10.94344084     0.00000000
      31    11.14776285     0.00000000
      32    13.04322127     0.00000000
      33    13.09987354     0.00000000
      34    14.00530572     0.00000000
#  Point 9      Spin 1:     0.00000000     0.00000000     0.00000000       0.11111111
#   Band    Energy [eV]     Occupation
       1   -51.67214784     1.00000000
       2   -51.65838333     1.00000000
       3   -26.44597330     1.00000000
       4   -26.44424159     1.00000000
       5   -26.29930789     1.00000000
       6   -26.29805015     1.00000000
       7   -26.27860379     1.00000000
       8   -26.24868391     1.00000000
       9   -11.29147520     1.00000000
      10   -10.17323700     1.00000000
      11    -9.49256852     1.00000000
      12    -9.49139285     1.00000000
      13     1.09832960     1.00000000
      14     1.52311337     1.00000000
      15     2.07592272     1.00000000
      16     3.04313802     1.00000000
      17     3.05061856     1.00000000
      18     4.26434375     1.00000000
      19     4.26637642     1.00000000
      20     4.86753847     1.00000000
      21     6.08797822     1.00000000
      22     6.34046581     1.00000000
      23     6.34296021     1.00000000
      24     6.81338634     1.00000000
      25     8.49798628     0.00000000
      26     8.77834048     0.00000000
      27     9.03536830     0.00000000
      28     9.11166233     0.00000000
      29     9.12050109     0.00000000
      30    10.89048946     0.00000000
      31    11.18603877     0.00000000
      32    13.08792701     0.00000000
      33    13.09965470     0.00000000
      34    14.05301036     0.00000000
#  Point 9      Spin 2:     0.00000000     0.00000000     0.00000000       0.11111111
#   Band    Energy [eV]     Occupation
       1   -51.67214784     1.00000000
       2   -51.65838333     1.00000000
       3   -26.44597330     1.00000000
       4   -26.44424159     1.00000000
       5   -26.29930789     1.00000000
       6   -26.29805015     1.00000000
       7   -26.27860379     1.00000000
       8   -26.24868391     1.00000000
       9   -11.29147520     1.00000000
      10   -10.17323700     1.00000000
      11    -9.49256852     1.00000000
      12    -9.49139285     1.00000000
      13     1.09832960     1.00000000
      14     1.52311337     1.00000000
      15     2.07592272     1.00000000
      16     3.04313802     1.00000000
      17     3.05061856     1.00000000
      18     4.26434375     1.00000000
      19     4.26637642     1.00000000
      20     4.86753847     1.00000000
      21     6.08797822     1.00000000
      22     6.34046581     1.00000000
      23     6.34296021     1.00000000
      24     6.81338634     1.00000000
      25     8.49798628     0.00000000
      26     8.77834048     0.00000000
      27     9.03536830     0.00000000
      28     9.11166233     0.00000000
      29     9.12050109     0.00000000
      30    10.89048946     0.00000000
      31    11.18603877     0.00000000
      32    13.08792701     0.00000000
      33    13.09965470     0.00000000
      34    14.05301036     0.00000000
 KPOINTS| Time for k-point line                                            0.084

 ENERGY| Total FORCE_EVAL ( QS ) energy [hartree]           -180.908875318709590

 -------------------------------------------------------------------------------
 -                                                                             -
 -                                DBCSR STATISTICS                             -
 -                                                                             -
 -------------------------------------------------------------------------------
 COUNTER                                    TOTAL       BLAS       SMM       ACC
 flops inhomo. stacks                           0       0.0%      0.0%      0.0%
 flops total                         0.000000E+00       0.0%      0.0%      0.0%
 flops max/rank                      0.000000E+00       0.0%      0.0%      0.0%
 matmuls inhomo. stacks                         0       0.0%      0.0%      0.0%
 matmuls total                                  0       0.0%      0.0%      0.0%
 number of processed stacks                     0       0.0%      0.0%      0.0%
 average stack size                                     0.0       0.0       0.0
 marketing flops                     0.000000E+00
 -------------------------------------------------------------------------------
 -                                                                             -
 -                      DBCSR MESSAGE PASSING PERFORMANCE                      -
 -                                                                             -
 -------------------------------------------------------------------------------
 ROUTINE             CALLS      AVE VOLUME [Bytes]
 MP_Bcast                1                     12.
 MP_Allreduce        10677                      8.
 MP_Alltoall         20264                  13972.
 -------------------------------------------------------------------------------

 -------------------------------------------------------------------------------
 -                                                                             -
 -                                DBM STATISTICS                               -
 -                                                                             -
 -------------------------------------------------------------------------------
    M  x    N  x    K                                          COUNT     PERCENT
 -------------------------------------------------------------------------------

 -------------------------------------------------------------------------------
 -                                                                             -
 -                                GRID STATISTICS                              -
 -                                                                             -
 -------------------------------------------------------------------------------
 LP    KERNEL             BACKEND                              COUNT     PERCENT
 4     collocate ortho    CPU                                 172952      23.42%
 4     integrate ortho    CPU                                 159648      21.61%
 5     collocate ortho    CPU                                 151632      20.53%
 5     integrate ortho    CPU                                 139968      18.95%
 6     collocate ortho    CPU                                  59488       8.05%
 6     integrate ortho    CPU                                  54912       7.43%
 0     collocate general  CPU                                      6       0.00%
 -------------------------------------------------------------------------------

 MEMORY| Estimated peak process memory [MiB]                                 236

 -------------------------------------------------------------------------------
 -                                                                             -
 -                         MESSAGE PASSING PERFORMANCE                         -
 -                                                                             -
 -------------------------------------------------------------------------------

 ROUTINE             CALLS      AVE VOLUME [Bytes]
 MP_Group                9
 MP_Bcast             6359                  58833.
 MP_Allreduce         6143                     25.
 MP_Sync               405
 MP_Alltoall           762
 MP_SendRecv          6157                   1840.
 MP_ISendRecv         5640                   1800.
 MP_Wait             10512
 MP_comm_split           8
 MP_ISend             6318                   4294.
 MP_IRecv             8432                   2105.
 -------------------------------------------------------------------------------


 -------------------------------------------------------------------------------
 -                                                                             -
 -                           R E F E R E N C E S                               -
 -                                                                             -
 -------------------------------------------------------------------------------
 
 CP2K version 2025.1, the CP2K developers group (2025).
 CP2K is freely available from https://www.cp2k.org/ .
 
 T. D. Kuehne, M. Iannuzzi, M. Del Ben, V. V. Rybkin, P. Seewald, F. Stein, T. 
 Laino, R. Z. Khaliullin, O. Schuett, F. Schiffmann, D. Golze, J. Wilhelm, S. 
 Chulkov, M. H. Bani-Hashemian, V. Weber, U. Borstnik, M. Taillefumier, A. S. 
 Jakobovits, A. Lazzaro, H. Pabst, T. Mueller, R. Schade, M. Guidon, S. 
 Andermatt, N. Holmberg, G. K. Schenter, A. Hehn, A. Bussy, F. Belleflamme, G. 
 Tabacchi, A. Gloess, M. Lass, I. Bethune, C. J. Mundy, C. Plessl, M. Watkins, 
 J. VandeVondele, M. Krack, J. Hutter.
 J. Chem. Phys. 152, 194103 (2020).
 CP2K: An electronic structure and molecular dynamics software package - 
 Quickstep: Efficient and accurate electronic structure calculations.
 https://doi.org/10.1063/5.0007045

 A. Togo, I. Tanaka.
 arXiv, 1808.01590 (2018).
 Spglib : a software library for crystal symmetry search.

 O. Schuett, P. Messmer, J. Hutter, J. VandeVondele.
 Electronic Structure Calculations on Graphics Processing Units, 173-190 (2016).
 GPU-Accelerated Sparse Matrix-Matrix Multiplication for Linear Scaling Density 
 Functional Theory.
 https://doi.org/10.1002/9781118670712.ch8

 A. Heinecke, G. Henry, M. Hutchinson, H. Pabst.
 Proceedings of Intl. Supercomputing Conference, 981-991 (2016).
 LIBXSMM: Accelerating Small Matrix Multiplications by Runtime Code Generation.
 https://doi.org/10.1109/SC.2016.83

 J. Hutter, M. Iannuzzi, F. Schiffmann, J. VandeVondele.
 WIREs Comput Mol Sci. 4, 15-25 (2014).
 CP2K: atomistic simulations of condensed matter systems.
 https://doi.org/10.1002/wcms.1159

 U. Borstnik, J. VandeVondele, V. Weber, J. Hutter.
 Parallel Comput. 40, 47-58 (2014).
 Sparse matrix multiplication: The distributed block-compressed sparse row 
 library.
 https://doi.org/10.1016/j.parco.2014.03.012

 J. VandeVondele, J. Hutter.
 J. Chem. Phys. 127, 114105 (2007).
 Gaussian basis sets for accurate calculations on molecular systems in gas and 
 condensed phases.
 https://doi.org/10.1063/1.2770708

 J. VandeVondele, M. Krack, F. Mohamed, M. Parrinello, T. Chassaing, J. Hutter.
 Comput. Phys. Commun. 167, 103-128 (2005).
 QUICKSTEP: Fast and accurate density functional calculations using a mixed 
 Gaussian and plane waves approach.
 https://doi.org/10.1016/j.cpc.2004.12.014

 M. Krack.
 Theor. Chem. Acc. 114, 145-152 (2005).
 Pseudopotentials for H to Kr optimized for gradient-corrected 
 exchange-correlation functionals.
 https://doi.org/10.1007/s00214-005-0655-y

 M. Frigo, S. G. Johnson.
 Proc. IEEE 93, 216-231 (2005).
 The design and implementation of FFTW3.
 https://doi.org/10.1109/JPROC.2004.840301

 C. Hartwigsen, S. Goedecker, J. Hutter.
 Phys. Rev. B 58, 3641-3662 (1998).
 Relativistic separable dual-space Gaussian pseudopotentials from H to Rn.
 https://doi.org/10.1103/PhysRevB.58.3641

 G. Lippert, J. Hutter, M. Parrinello.
 Mol. Phys. 92, 477-487 (1997).
 A hybrid Gaussian and plane wave density functional scheme.
 https://doi.org/10.1080/002689797170220

 S. Goedecker, M. Teter, J. Hutter.
 Phys. Rev. B 54, 1703-1710 (1996).
 Separable dual-space Gaussian pseudopotentials.
 https://doi.org/10.1103/PhysRevB.54.1703

 J. P. Perdew, K. Burke, M. Ernzerhof.
 Phys. Rev. Lett. 77, 3865-3868 (1996).
 Generalized gradient approximation made simple.
 https://doi.org/10.1103/PhysRevLett.77.3865


 -------------------------------------------------------------------------------
 -                                                                             -
 -                                T I M I N G                                  -
 -                                                                             -
 -------------------------------------------------------------------------------
 SUBROUTINE                       CALLS  ASD         SELF TIME        TOTAL TIME
                                MAXIMUM       AVERAGE  MAXIMUM  AVERAGE  MAXIMUM
 CP2K                                 1  1.0    0.066    0.068    4.289    4.290
 qs_energies                          1  2.0    0.003    0.008    4.073    4.076
 scf_env_do_scf                       1  3.0    0.001    0.001    3.454    3.455
 scf_env_do_scf_inner_loop           12  4.0    0.005    0.006    3.453    3.455
 do_general_diag_kp                  15  5.4    0.004    0.004    1.538    1.610
 qs_ks_update_qs_env                 12  5.0    0.000    0.000    0.859    1.322
 qs_scf_new_mos_kp                   12  5.0    0.000    0.000    1.217    1.288
 rebuild_ks_matrix                   12  6.0    0.000    0.001    0.734    1.197
 qs_ks_build_kohn_sham_matrix        12  7.0    0.008    0.009    0.733    1.197
 sum_up_and_integrate                12  8.0    0.000    0.000    0.673    1.131
 integrate_v_rspace                  24  9.0    0.001    0.010    0.672    1.130
 transfer_rs2pw                     131  8.0    0.000    0.000    0.960    1.104
 mp_sendrecv_dv                    6157 10.0    0.949    1.094    0.949    1.094
 transfer_rs2pw_100                  27  8.9    0.004    0.005    0.941    1.085
 grid_integrate_task_list            24 10.0    0.143    1.064    0.143    1.064
 qs_rho_update_rho_low               13  5.0    0.000    0.000    1.048    1.050
 calculate_rho_elec                  26  6.0    0.001    0.005    1.048    1.050
 density_rs2pw                       26  7.0    0.001    0.002    0.912    1.046
 mp_alltoall_i22                   3456  8.1    0.921    1.037    0.921    1.037
 grid_collocate_task_list            26  7.0    0.135    0.977    0.135    0.977
 dbcsr_desymmetrize_deep           1964  6.8    0.019    0.024    0.865    0.963
 fft_wrap_pw1pw2                    479 10.0    0.001    0.001    0.550    0.627
 potential_pw2rs                     24 10.0    0.001    0.001    0.528    0.603
 fft_wrap_pw1pw2_100                279 11.4    0.002    0.002    0.513    0.589
 fft3d_pb                           279 12.4    0.007    0.007    0.508    0.585
 mp_alltoall_z22v                   758 14.2    0.497    0.574    0.497    0.574
 cube_transpose_2                   227 12.6    0.002    0.002    0.174    0.556
 cube_transpose_4                   123 13.9    0.002    0.002    0.316    0.553
 copy_dbcsr_to_fm                  1204  6.2    0.007    0.008    0.415    0.451
 dbcsr_complete_redistribute       1492  7.5    0.029    0.053    0.350    0.367
 cp_cfm_geeig                        58  5.2    0.000    0.001    0.310    0.313
 write_kpoints_restart               12  5.0    0.001    0.008    0.281    0.282
 cp_cfm_heevd                        58  6.2    0.000    0.000    0.237    0.251
 cp_cfm_heevd_base                   58  7.2    0.237    0.251    0.237    0.251
 rskp_transform                     380  6.3    0.019    0.206    0.019    0.206
 kpoint_density_transform            12  7.0    0.003    0.003    0.159    0.164
 qs_energies_init_hamiltonians        1  3.0    0.001    0.002    0.147    0.148
 cp_fm_write_unformatted            444  6.0    0.098    0.138    0.099    0.144
 mp_sum_d                         11226  8.7    0.124    0.130    0.124    0.130
 evaluate_core_matrix_traces         12  6.0    0.000    0.000    0.125    0.126
 calculate_ptrace_kp                 24  7.0    0.005    0.005    0.125    0.126
 dbcsr_dot_sd                     10658  8.0    0.012    0.036    0.121    0.123
 init_scf_run                         1  3.0    0.000    0.000    0.117    0.120
 scf_env_initial_rho_setup            1  4.0    0.001    0.001    0.117    0.120
 copy_fm_to_dbcsr                   288  8.0    0.001    0.001    0.111    0.118
 qs_env_update_s_mstruct              1  4.0    0.000    0.001    0.106    0.117
 mp_cart_sub                       2416  8.2    0.110    0.111    0.110    0.111
 build_core_hamiltonian_matrix        1  4.0    0.002    0.003    0.028    0.106
 cp_fm_start_copy_general          1048  6.7    0.008    0.032    0.101    0.104
 self_consistency_check              12  5.0    0.005    0.005    0.096    0.097
 calculate_rho_core                   1  5.0    0.000    0.001    0.086    0.096
 cp_sm_mix                         5328  6.0    0.009    0.023    0.086    0.088
 -------------------------------------------------------------------------------

 The number of warnings for this run is : 2
 
 -------------------------------------------------------------------------------
  **** **** ******  **  PROGRAM ENDED AT                 2025-02-10 12:07:07.706
 ***** ** ***  *** **   PROGRAM RAN ON                                     c0447
 **    ****   ******    PROGRAM RAN BY                                    u12591
 ***** **    ** ** **   PROGRAM PROCESS ID                                566555
  **** **  *******  **  PROGRAM STOPPED IN /mnt/lustre-grete/usr/u12591/cp2k_par
                                           ser_tests/cp2k-2025.1/bands_spin_pol
