       4
 i =        1, E =       -65.9790206140
 Cs         3.3048412495        1.9073860172        1.3482552611
 Cs         9.9145233686        5.7221572384        4.0447652271
 Cs         6.6096823091        3.8147715841        2.6965102689
 Sb         0.0000000000        0.0000000226        0.0000000151
       4
 i =        2, E =       -65.9889671124
 Cs         3.2544474430        1.8490749223        1.2863103132
 Cs         9.7591230114        5.5440261797        3.8567090376
 Cs         6.5067852878        3.6965489890        2.5715107749
 Sb        -0.0000002111        0.0000006709        0.0000006462
       4
 i =        3, E =       -65.9900407937
 Cs         3.2049577820        1.7915789063        1.2251359108
 Cs         9.5996080535        5.3636315278        3.6678790169
 Cs         6.4022884074        3.5775943112        2.4465123021
 Sb        -0.0000011874        0.0000022277        0.0000035432
       4
 i =        4, E =       -65.9909734834
 Cs         3.2251689882        1.8150051821        1.2500690947
 Cs         9.6580208527        5.4321398940        3.7414608405
 Cs         6.4415962343        3.6235664137        2.4957571911
 Sb        -0.0000032300       -0.0000009749        0.0000011279
       4
 i =        5, E =       -65.9909961478
 Cs         3.2235161626        1.8130742498        1.2480512457
 Cs         9.6469253928        5.4216947344        3.7322724520
 Cs         6.4351941471        3.6173827981        2.4901487149
 Sb        -0.0000088122        0.0000006249        0.0000013803
       4
 i =        6, E =       -65.9911853984
 Cs         3.2220336583        1.8110140590        1.2461628070
 Cs         9.6127732373        5.3941537467        3.7120516500
 Cs         6.4172662903        3.6026288288        2.4791038226
 Sb        -0.0000157407        0.0000154352       -0.0000017776
       4
 i =        7, E =       -65.9914497452
 Cs         3.2239889486        1.8127710138        1.2487261534
 Cs         9.5668599333        5.3623133706        3.6944320461
 Cs         6.3950709375        3.5876122150        2.4715861684
 Sb        -0.0000290778        0.0000346786        0.0000033765
       4
 i =        8, E =       -65.9914497452
 Cs         3.2239889486        1.8127710138        1.2487261534
 Cs         9.5668599333        5.3623133706        3.6944320461
 Cs         6.3950709375        3.5876122150        2.4715861684
 Sb        -0.0000290778        0.0000346786        0.0000033765
