CRYSTAL
PRIMVEC
      0.00000000      13.04129400      13.04129400
     13.04129400       0.00000000      13.04129400
     13.04129400      13.04129400       0.00000000
PRIMCOORD
106 1
30       7.65392676       7.65392676       5.38736724
30      18.42866124      18.42866124      20.69522076
30       5.38736724       5.38736724       5.38736724
30      20.69522076      20.69522076      20.69522076
30       5.38736724       7.65392676       7.65392676
30      20.69522076      18.42866124      18.42866124
30       7.65392676       5.38736724       7.65392676
30      18.42866124      20.69522076      18.42866124
 8       6.52064700       6.52064700       6.52064700
 8      19.56194100      19.56194100      19.56194100
 8       7.32361649       9.56501596       5.71767751
 8      18.75897150      16.51757203      20.36491049
 8       5.71767751       3.47627804       5.71767751
 8      20.36491049      22.60630996      20.36491049
 8       5.71767751       9.56501596       7.32361649
 8      20.36491049      16.51757203      18.75897150
 8       7.32361649       3.47627804       7.32361649
 8      18.75897150      22.60630996      18.75897150
 8       5.71767751       7.32361649       9.56501596
 8      20.36491049      18.75897150      16.51757203
 8       5.71767751       5.71767751       3.47627804
 8      20.36491049      20.36491049      22.60630996
 8       7.32361649       5.71767751       9.56501596
 8      18.75897150      20.36491049      16.51757203
 8       7.32361649       7.32361649       3.47627804
 8      18.75897150      18.75897150      22.60630996
 8       9.56501596       5.71767751       7.32361649
 8      16.51757203      20.36491049      18.75897150
 8       3.47627804       5.71767751       5.71767751
 8      22.60630996      20.36491049      20.36491049
 8       9.56501596       7.32361649       5.71767751
 8      16.51757203      18.75897150      20.36491049
 8       3.47627804       7.32361649       7.32361649
 8      22.60630996      18.75897150      18.75897150
 6       6.52064700      10.14031862       6.52064700
 6      19.56194100      15.94226937      19.56194100
 6       6.52064700       2.90097537       6.52064700
 6      19.56194100      23.18161262      19.56194100
 6       6.52064700       6.52064700      10.14031862
 6      19.56194100      19.56194100      15.94226937
 6       6.52064700       6.52064700       2.90097537
 6      19.56194100      19.56194100      23.18161262
 6      10.14031862       6.52064700       6.52064700
 6      15.94226937      19.56194100      19.56194100
 6       2.90097537       6.52064700       6.52064700
 6      23.18161262      19.56194100      19.56194100
 6       6.52064700      11.64051290       6.52064700
 6      19.56194100      14.44207510      19.56194100
 6       6.52064700       1.40078110       6.52064700
 6      19.56194100      24.68180689      19.56194100
 6       6.52064700       6.52064700      11.64051290
 6      19.56194100      19.56194100      14.44207510
 6       6.52064700       6.52064700       1.40078110
 6      19.56194100      19.56194100      24.68180689
 6      11.64051290       6.52064700       6.52064700
 6      14.44207510      19.56194100      19.56194100
 6       1.40078110       6.52064700       6.52064700
 6      24.68180689      19.56194100      19.56194100
 6       7.37747429      12.34609193       5.66381971
 6      18.70511370      13.73649607      20.41876829
 6       5.66381971       0.69520207       5.66381971
 6      20.41876829      25.38738593      20.41876829
 6       5.66381971      12.34609193       7.37747429
 6      20.41876829      13.73649607      18.70511370
 6       7.37747429       0.69520207       7.37747429
 6      18.70511370      25.38738593      18.70511370
 6       5.66381971       7.37747429      12.34609193
 6      20.41876829      18.70511370      13.73649607
 6       5.66381971       5.66381971       0.69520207
 6      20.41876829      20.41876829      25.38738593
 6       7.37747429       5.66381971      12.34609193
 6      18.70511370      20.41876829      13.73649607
 6       7.37747429       7.37747429       0.69520207
 6      18.70511370      18.70511370      25.38738593
 6      12.34609193       5.66381971       7.37747429
 6      13.73649607      20.41876829      18.70511370
 6       0.69520207       5.66381971       5.66381971
 6      25.38738593      20.41876829      20.41876829
 6      12.34609193       7.37747429       5.66381971
 6      13.73649607      18.70511370      20.41876829
 6       0.69520207       7.37747429       7.37747429
 6      25.38738593      18.70511370      18.70511370
 1       8.03853959      11.78856446       5.00275441
 1      18.04404841      14.29402353      21.07983358
 1       5.00275441       1.25272953       5.00275441
 1      21.07983358      24.82985846      21.07983358
 1       5.00275441      11.78856446       8.03853959
 1      21.07983358      14.29402353      18.04404841
 1       8.03853959       1.25272953       8.03853959
 1      18.04404841      24.82985846      18.04404841
 1       5.00275441       8.03853959      11.78856446
 1      21.07983358      18.04404841      14.29402353
 1       5.00275441       5.00275441       1.25272953
 1      21.07983358      21.07983358      24.82985846
 1       8.03853959       5.00275441      11.78856446
 1      18.04404841      21.07983358      14.29402353
 1       8.03853959       8.03853959       1.25272953
 1      18.04404841      18.04404841      24.82985846
 1      11.78856446       5.00275441       8.03853959
 1      14.29402353      21.07983358      18.04404841
 1       1.25272953       5.00275441       5.00275441
 1      24.82985846      21.07983358      21.07983358
 1      11.78856446       8.03853959       5.00275441
 1      14.29402353      18.04404841      21.07983358
 1       1.25272953       8.03853959       8.03853959
 1      24.82985846      18.04404841      18.04404841
