CRYSTAL
PRIMVEC
      0.00000000       4.06600000       4.06600000
      4.06600000       0.00000000       4.06600000
      4.06600000       4.06600000       0.00000000
PRIMCOORD
2 1
31       0.00000000       0.00000000       0.00000000
33       6.09900000       6.09900000       6.09900000
