64   
1    

1    
  0.0100000000000000   0.0000000000000000   0.0000000000000000
  -0.0034846897    0.0000000097    0.0000000097
   0.0000038603    0.0000000097    0.0000000097
   0.0000098103    0.0000000097    0.0000000097
   0.0000014403    0.0000000097    0.0000000097
   0.0000098103    0.0000000097    0.0000000097
   0.0000014403    0.0000000097    0.0000000097
  -0.0000828097    0.0000000097    0.0000000097
   0.0000055003    0.0000000097    0.0000000097
  -0.0000925897    0.0000236397    0.0000236397
  -0.0000016897    0.0000021997    0.0000021997
  -0.0000924597    0.0000232697   -0.0000232903
  -0.0000016297    0.0000021997   -0.0000022203
  -0.0000924597   -0.0000232903    0.0000232697
  -0.0000016297   -0.0000022203    0.0000021997
  -0.0000925897   -0.0000236603   -0.0000236603
  -0.0000016897   -0.0000022203   -0.0000022203
   0.0000469503   -0.0000233103    0.0000474097
   0.0000472603   -0.0000235903   -0.0000476803
   0.0000079903   -0.0000021903   -0.0000126103
   0.0000079903   -0.0000021903    0.0000125597
   0.0000469503    0.0000233397   -0.0000474303
   0.0000472603    0.0000236197    0.0000476597
   0.0000079903    0.0000022197    0.0000125897
   0.0000079903    0.0000022297   -0.0000125803
   0.0000469503    0.0000474097   -0.0000233103
   0.0000472603   -0.0000476803   -0.0000235903
   0.0000469503   -0.0000474303    0.0000233397
   0.0000472603    0.0000476597    0.0000236197
   0.0000079903   -0.0000126103   -0.0000021903
   0.0000079903    0.0000125597   -0.0000021903
   0.0000079903    0.0000125897    0.0000022197
   0.0000079903   -0.0000125803    0.0000022297
  -0.0000036197    0.0000051897    0.0000051897
   0.0000422803    0.0000067997    0.0000067997
   0.0000062103    0.0000067297    0.0000071997
  -0.0000109797    0.0000073597    0.0000070497
   0.0000062103    0.0000071997    0.0000067297
  -0.0000109797    0.0000070497    0.0000073597
   0.0000006103    0.0000070297    0.0000070297
   0.0008410803    0.0007252497    0.0007252497
   0.0000006003   -0.0000070303   -0.0000070303
   0.0008410703   -0.0007252403   -0.0007252403
   0.0000062003   -0.0000072003   -0.0000067203
  -0.0000109897   -0.0000070503   -0.0000073603
   0.0000062003   -0.0000067203   -0.0000072003
  -0.0000109897   -0.0000073603   -0.0000070503
  -0.0000036297   -0.0000051803   -0.0000051803
   0.0000422703   -0.0000068003   -0.0000068003
  -0.0000108397   -0.0000069603    0.0000074497
   0.0000063403   -0.0000073103    0.0000068497
   0.0008347503   -0.0007085603    0.0007085497
   0.0000007203   -0.0000069803    0.0000069697
   0.0000421503   -0.0000067803    0.0000067697
  -0.0000035897   -0.0000051803    0.0000051697
  -0.0000108397   -0.0000074503    0.0000069497
   0.0000063403   -0.0000068503    0.0000072997
  -0.0000108397    0.0000074497   -0.0000069603
   0.0000063403    0.0000068497   -0.0000073103
   0.0000421503    0.0000067697   -0.0000067803
  -0.0000035897    0.0000051697   -0.0000051803
   0.0008347503    0.0007085497   -0.0007085603
   0.0000007203    0.0000069697   -0.0000069803
  -0.0000108397    0.0000069497   -0.0000074503
   0.0000063403    0.0000072997   -0.0000068503
