64   
1    

1    
  0.0100000000000000   0.0000000000000000   0.0000000000000000
  -0.0023717089   -0.0000000000   -0.0000000000
   0.0000021811   -0.0000000000   -0.0000000000
   0.0000090711   -0.0000000000   -0.0000000000
  -0.0000020389   -0.0000000000   -0.0000000000
   0.0000090711   -0.0000000000   -0.0000000000
  -0.0000020389   -0.0000000000   -0.0000000000
  -0.0000784989   -0.0000000000   -0.0000000000
   0.0000036011   -0.0000000000   -0.0000000000
  -0.0000847489    0.0000187300    0.0000187300
  -0.0000003889    0.0000014100    0.0000014100
  -0.0000844789    0.0000185200   -0.0000185200
  -0.0000003289    0.0000014300   -0.0000014300
  -0.0000844789   -0.0000185200    0.0000185200
  -0.0000003289   -0.0000014300    0.0000014300
  -0.0000847489   -0.0000187300   -0.0000187300
  -0.0000003889   -0.0000014100   -0.0000014100
   0.0000338611   -0.0000181800    0.0000332900
   0.0000341811   -0.0000184000   -0.0000335600
   0.0000060511   -0.0000014100   -0.0000124700
   0.0000060611   -0.0000014100    0.0000124300
   0.0000338611    0.0000181800   -0.0000332900
   0.0000341811    0.0000184000    0.0000335600
   0.0000060511    0.0000014100    0.0000124700
   0.0000060611    0.0000014100   -0.0000124300
   0.0000338611    0.0000332900   -0.0000181800
   0.0000341811   -0.0000335600   -0.0000184000
   0.0000338611   -0.0000332900    0.0000181800
   0.0000341811    0.0000335600    0.0000184000
   0.0000060511   -0.0000124700   -0.0000014100
   0.0000060611    0.0000124300   -0.0000014100
   0.0000060511    0.0000124700    0.0000014100
   0.0000060611   -0.0000124300    0.0000014100
  -0.0000031789    0.0000048600    0.0000048600
   0.0000427811    0.0000036500    0.0000036500
   0.0000038611    0.0000036400    0.0000029500
  -0.0000090289    0.0000083700    0.0000057000
   0.0000038611    0.0000029500    0.0000036400
  -0.0000090289    0.0000057000    0.0000083700
  -0.0000009689    0.0000056700    0.0000056700
   0.0005868611    0.0003704800    0.0003704800
  -0.0000009689   -0.0000056700   -0.0000056700
   0.0005868611   -0.0003704800   -0.0003704800
   0.0000038611   -0.0000029500   -0.0000036400
  -0.0000090289   -0.0000057000   -0.0000083700
   0.0000038611   -0.0000036400   -0.0000029500
  -0.0000090289   -0.0000083700   -0.0000057000
  -0.0000031789   -0.0000048600   -0.0000048600
   0.0000427811   -0.0000036500   -0.0000036500
  -0.0000089489   -0.0000056300    0.0000084500
   0.0000039711   -0.0000030300    0.0000037600
   0.0005811411   -0.0003604300    0.0003604300
  -0.0000009489   -0.0000056400    0.0000056400
   0.0000426111   -0.0000036200    0.0000036200
  -0.0000031889   -0.0000048400    0.0000048400
  -0.0000089489   -0.0000084500    0.0000056300
   0.0000039711   -0.0000037600    0.0000030300
  -0.0000089489    0.0000084500   -0.0000056300
   0.0000039711    0.0000037600   -0.0000030300
   0.0000426111    0.0000036200   -0.0000036200
  -0.0000031889    0.0000048400   -0.0000048400
   0.0005811411    0.0003604300   -0.0003604300
  -0.0000009489    0.0000056400   -0.0000056400
  -0.0000089489    0.0000056300   -0.0000084500
   0.0000039711    0.0000030300   -0.0000037600
