 DBCSR| CPU Multiplication driver                                           XSMM
 DBCSR| Multrec recursion limit                                              512
 DBCSR| Multiplication stack size                                           1000
 DBCSR| Maximum elements for images                                    UNLIMITED
 DBCSR| Multiplicative factor virtual images                                   1
 DBCSR| Use multiplication densification                                       T
 DBCSR| Multiplication size stacks                                             3
 DBCSR| Use memory pool for CPU allocation                                     F
 DBCSR| Number of 3D layers                                               SINGLE
 DBCSR| Use MPI memory allocation                                              F
 DBCSR| Use RMA algorithm                                                      F
 DBCSR| Use Communication thread                                               T
 DBCSR| Communication thread load                                             83
 DBCSR| MPI: My node id                                                        0
 DBCSR| MPI: Number of nodes                                                  12
 DBCSR| OMP: Current number of threads                                         2
 DBCSR| OMP: Max number of threads                                             2
 DBCSR| Split modifier for TAS multiplication algorithm                  1.0E+00


  **** **** ******  **  PROGRAM STARTED AT               2021-06-03 14:26:03.291
 ***** ** ***  *** **   PROGRAM STARTED ON                               mpcl003
 **    ****   ******    PROGRAM STARTED BY                              pubo1141
 ***** **    ** ** **   PROGRAM PROCESS ID                                  9102
  **** **  *******  **  PROGRAM STARTED IN /user/pubo1141/simulations/aiida_test
                                           s/cp2k_8.2/bands_spin_pol_low

 CP2K| version string:                                          CP2K version 8.2
 CP2K| source code revision number:                                  git:310b7ab
 CP2K| cp2kflags: omp libint fftw3 libxc parallel mpi3 scalapack xsmm spglib mkl
 CP2K|             libvori libbqb
 CP2K| is freely available from                            https://www.cp2k.org/
 CP2K| Program compiled at                         Mon May 31 14:14:56 CEST 2021
 CP2K| Program compiled on                                               hpcl003
 CP2K| Program compiled for                                        carl-mkl-ompi
 CP2K| Data directory path            /user/pubo1141/software/cp2k/cp2k-8.2/data
 CP2K| Input file name                                                 aiida.inp

 GLOBAL| Force Environment number                                              1
 GLOBAL| Basis set file name                                        BASIS_MOLOPT
 GLOBAL| Potential file name                                      GTH_POTENTIALS
 GLOBAL| MM Potential file name                                     MM_POTENTIAL
 GLOBAL| Coordinate file name                                      __STD_INPUT__
 GLOBAL| Method name                                                        CP2K
 GLOBAL| Project name                                            TiO2-bulk-bands
 GLOBAL| Run type                                                         ENERGY
 GLOBAL| FFT library                                                       FFTW3
 GLOBAL| Diagonalization library                                       ScaLAPACK
 GLOBAL| Orthonormality check for eigenvectors                          DISABLED
 GLOBAL| Matrix multiplication library                                    SCALAP
 GLOBAL| All-to-all communication in single precision                          F
 GLOBAL| FFTs using library dependent lengths                                  F
 GLOBAL| Grid backend                                                       AUTO
 GLOBAL| Global print level                                                  LOW
 GLOBAL| MPI I/O enabled                                                       T
 GLOBAL| Total number of message passing processes                            12
 GLOBAL| Number of threads for this process                                    2
 GLOBAL| This output is from process                                           0
 GLOBAL| CPU model name                Intel(R) Xeon(R) CPU E5-2650 v4 @ 2.20GHz
 GLOBAL| CPUID                                                              1002
 GLOBAL| Compiled for CPUID                                                    0

 *** HINT in environment.F:872 :: The compiler target flags (generic) used ***
 *** to build this binary cannot exploit all extensions of this CPU model  ***
 *** (x86_avx2). Consider compiler target flags as part of FCFLAGS and     ***
 *** CFLAGS (ARCH file).                                                   ***


 MEMORY| system memory details [Kb]
 MEMORY|                        rank 0           min           max       average
 MEMORY| MemTotal            131594208     131594208     131594208     131594208
 MEMORY| MemFree              84436108      84435884      84436108      84435958
 MEMORY| Buffers                 29596         29596         29596         29596
 MEMORY| Cached               36375776      36375776      36375776      36375776
 MEMORY| Slab                  2020404       2020404       2020404       2020404
 MEMORY| SReclaimable           884668        884668        884668        884668
 MEMORY| MemLikelyFree       121726148     121725924     121726148     121725998


 GENERATE|  Preliminary Number of Bonds generated:                             0
 GENERATE|  Achieved consistency in connectivity generation.

 *******************************************************************************
 *******************************************************************************
 **                                                                           **
 **     #####                         ##              ##                      **
 **    ##   ##            ##          ##              ##                      **
 **   ##     ##                       ##            ######                    **
 **   ##     ##  ##   ##  ##   #####  ##  ##   ####   ##    #####    #####    **
 **   ##     ##  ##   ##  ##  ##      ## ##   ##      ##   ##   ##  ##   ##   **
 **   ##  ## ##  ##   ##  ##  ##      ####     ###    ##   ######   ######    **
 **    ##  ###   ##   ##  ##  ##      ## ##      ##   ##   ##       ##        **
 **     #######   #####   ##   #####  ##  ##  ####    ##    #####   ##        **
 **           ##                                                    ##        **
 **                                                                           **
 **                                                ... make the atoms dance   **
 **                                                                           **
 **            Copyright (C) by CP2K developers group (2000-2021)             **
 **                      J. Chem. Phys. 152, 194103 (2020)                    **
 **                                                                           **
 *******************************************************************************


 TOTAL NUMBERS AND MAXIMUM NUMBERS

  Total number of            - Atomic kinds:                                   2
                             - Atoms:                                          6
                             - Shell sets:                                     6
                             - Shells:                                        36
                             - Primitive Cartesian functions:                 40
                             - Cartesian basis functions:                    118
                             - Spherical basis functions:                    104

  Maximum angular momentum of- Orbital basis functions:                        3
                             - Local part of the GTH pseudopotential:          2
                             - Non-local part of the GTH pseudopotential:      3


 SCF PARAMETERS         Density guess:                                   RESTART
                        --------------------------------------------------------
                        max_scf:                                             150
                        max_scf_history:                                       0
                        max_diis:                                              4
                        --------------------------------------------------------
                        eps_scf:                                        1.00E-04
                        eps_scf_history:                                0.00E+00
                        eps_diis:                                       1.00E-01
                        eps_eigval:                                     1.00E-05
                        --------------------------------------------------------
                        level_shift [a.u.]:                                 0.00
                        --------------------------------------------------------
                        Mixing method:                            BROYDEN_MIXING
                                                charge density mixing in g-space
                        --------------------------------------------------------
                        No outer SCF

 KPOINTS| Number of kpoint groups                                              6
 KPOINTS| Size of each kpoint group                                            2
 KPOINTS| Number of kpoints per group                                          1

 Spin 1

 Number of electrons:                                                         24
 Number of occupied orbitals:                                                 24
 Number of molecular orbitals:                                                24

 Spin 2

 Number of electrons:                                                         24
 Number of occupied orbitals:                                                 24
 Number of molecular orbitals:                                                24

 Number of orbital functions:                                                104
 Number of independent orbital functions:                                    104

 Extrapolation method: initial_guess

 *** WARNING in qs_initial_guess.F:309 :: User requested to restart the    ***
 *** wavefunction from the file named: TiO2-bulk-bands-RESTART.kp. This    ***
 *** file does not exist. Please check the existence of the file or change ***
 *** properly the value of the keyword WFN_RESTART_FILE_NAME. Calculation  ***
 *** continues using ATOMIC GUESS.                                         ***



 SCF WAVEFUNCTION OPTIMIZATION

  Step     Update method      Time    Convergence         Total energy    Change
  ------------------------------------------------------------------------------
     1 NoMix/Diag. 0.10E+00    0.4     1.04553863      -181.2243892108 -1.81E+02
     2 Broy./Diag. 0.10E+00    0.7     0.03285145      -177.4084463552  3.82E+00
     3 Broy./Diag. 0.10E+00    0.7     0.13050515      -179.3907182113 -1.98E+00
     4 Broy./Diag. 0.10E+00    0.6     0.04049567      -180.8207761659 -1.43E+00
     5 Broy./Diag. 0.10E+00    0.6     0.00350471      -180.8346897339 -1.39E-02
     6 Broy./Diag. 0.10E+00    0.6     0.00603117      -180.9109522790 -7.63E-02
     7 Broy./Diag. 0.10E+00    0.6     0.00131856      -181.0648857718 -1.54E-01
     8 Broy./Diag. 0.10E+00    0.6     0.00348798      -180.9685015507  9.64E-02
     9 Broy./Diag. 0.10E+00    0.7     0.00042384      -180.8998182881  6.87E-02
    10 Broy./Diag. 0.10E+00    0.6     0.00019163      -180.8957294641  4.09E-03
    11 Broy./Diag. 0.10E+00    0.6     0.00025270      -180.9036725524 -7.94E-03
    12 Broy./Diag. 0.10E+00    0.6     0.00007877      -180.9088753187 -5.20E-03

  *** SCF run converged in    12 steps ***


  Electronic density on regular grids:        -47.9999551034        0.0000448966
  Core density on regular grids:               47.9999998635       -0.0000001365
  Total charge density on r-space grids:        0.0000447601
  Total charge density g-space grids:           0.0000447601

  Overlap energy of the core charge distribution:               0.00000000000004
  Self energy of the core charge distribution:               -379.90298629198736
  Core Hamiltonian energy:                                    101.16817662080679
  Hartree energy:                                             126.52226904888479
  Exchange-correlation energy:                                -28.69633469641393

  Total energy:                                              -180.90887531870968

  Integrated absolute spin density  :                               0.0000000000

 *** WARNING in qs_scf_post_gpw.F:1742 :: Spin contamination estimate not ***
 *** implemented for k-points.                                            ***


 KPOINTS| Band Structure Calculation
 KPOINTS| Number of k-point sets                                               3
 KPOINTS| Number of added MOs/bands                                           10

 KPOINTS| Number of kpoint groups                                              1
 KPOINTS| Size of each kpoint group                                           12
 KPOINTS| Number of kpoints per group                                          7
 KPOINTS| Number of k-points in set    1                                       7
 KPOINTS| In units of b-vector [2pi/Bohr]
 KPOINTS| Special point     1       GAMMA     0.000000     0.000000     0.000000
 KPOINTS| Special point     2           X     0.000000     0.500000     0.000000
#  Point 1      Spin 1:     0.00000000     0.00000000     0.00000000       0.14285714
#   Band    Energy [eV]     Occupation
       1   -51.67214784     1.00000000
       2   -51.65838333     1.00000000
       3   -26.44597330     1.00000000
       4   -26.44424159     1.00000000
       5   -26.29930789     1.00000000
       6   -26.29805015     1.00000000
       7   -26.27860379     1.00000000
       8   -26.24868391     1.00000000
       9   -11.29147520     1.00000000
      10   -10.17323700     1.00000000
      11    -9.49256852     1.00000000
      12    -9.49139285     1.00000000
      13     1.09832960     1.00000000
      14     1.52311337     1.00000000
      15     2.07592272     1.00000000
      16     3.04313802     1.00000000
      17     3.05061856     1.00000000
      18     4.26434375     1.00000000
      19     4.26637642     1.00000000
      20     4.86753847     1.00000000
      21     6.08797822     1.00000000
      22     6.34046581     1.00000000
      23     6.34296021     1.00000000
      24     6.81338634     1.00000000
      25     8.49798628     0.00000000
      26     8.77834048     0.00000000
      27     9.03536830     0.00000000
      28     9.11166233     0.00000000
      29     9.12050109     0.00000000
      30    10.89048946     0.00000000
      31    11.18603877     0.00000000
      32    13.08792701     0.00000000
      33    13.09965470     0.00000000
      34    14.05301036     0.00000000
#  Point 1      Spin 2:     0.00000000     0.00000000     0.00000000       0.14285714
#   Band    Energy [eV]     Occupation
       1   -51.67214784     1.00000000
       2   -51.65838333     1.00000000
       3   -26.44597330     1.00000000
       4   -26.44424159     1.00000000
       5   -26.29930789     1.00000000
       6   -26.29805015     1.00000000
       7   -26.27860379     1.00000000
       8   -26.24868391     1.00000000
       9   -11.29147520     1.00000000
      10   -10.17323700     1.00000000
      11    -9.49256852     1.00000000
      12    -9.49139285     1.00000000
      13     1.09832960     1.00000000
      14     1.52311337     1.00000000
      15     2.07592272     1.00000000
      16     3.04313802     1.00000000
      17     3.05061856     1.00000000
      18     4.26434375     1.00000000
      19     4.26637642     1.00000000
      20     4.86753847     1.00000000
      21     6.08797822     1.00000000
      22     6.34046581     1.00000000
      23     6.34296021     1.00000000
      24     6.81338634     1.00000000
      25     8.49798628     0.00000000
      26     8.77834048     0.00000000
      27     9.03536830     0.00000000
      28     9.11166233     0.00000000
      29     9.12050109     0.00000000
      30    10.89048946     0.00000000
      31    11.18603877     0.00000000
      32    13.08792701     0.00000000
      33    13.09965470     0.00000000
      34    14.05301036     0.00000000
#  Point 2      Spin 1:     0.00000000     0.08333333     0.00000000       0.14285714
#   Band    Energy [eV]     Occupation
       1   -51.67194288     1.00000000
       2   -51.65855764     1.00000000
       3   -26.44408748     1.00000000
       4   -26.44230435     1.00000000
       5   -26.30156656     1.00000000
       6   -26.30025424     1.00000000
       7   -26.27814071     1.00000000
       8   -26.24914462     1.00000000
       9   -11.26839331     1.00000000
      10   -10.17456006     1.00000000
      11    -9.51522985     1.00000000
      12    -9.50030095     1.00000000
      13     1.14362182     1.00000000
      14     1.55055599     1.00000000
      15     2.11776748     1.00000000
      16     3.04665165     1.00000000
      17     3.05442670     1.00000000
      18     4.22145368     1.00000000
      19     4.25337519     1.00000000
      20     4.87033860     1.00000000
      21     6.04296259     1.00000000
      22     6.20818336     1.00000000
      23     6.27967792     1.00000000
      24     6.79445765     1.00000000
      25     8.54047164     0.00000000
      26     8.83913664     0.00000000
      27     9.08929490     0.00000000
      28     9.14209149     0.00000000
      29     9.15755073     0.00000000
      30    10.93791845     0.00000000
      31    11.15176248     0.00000000
      32    13.06723074     0.00000000
      33    13.07997434     0.00000000
      34    14.01112447     0.00000000
#  Point 2      Spin 2:     0.00000000     0.08333333     0.00000000       0.14285714
#   Band    Energy [eV]     Occupation
       1   -51.67194288     1.00000000
       2   -51.65855764     1.00000000
       3   -26.44408748     1.00000000
       4   -26.44230435     1.00000000
       5   -26.30156656     1.00000000
       6   -26.30025424     1.00000000
       7   -26.27814071     1.00000000
       8   -26.24914462     1.00000000
       9   -11.26839331     1.00000000
      10   -10.17456006     1.00000000
      11    -9.51522985     1.00000000
      12    -9.50030095     1.00000000
      13     1.14362182     1.00000000
      14     1.55055599     1.00000000
      15     2.11776748     1.00000000
      16     3.04665165     1.00000000
      17     3.05442670     1.00000000
      18     4.22145368     1.00000000
      19     4.25337519     1.00000000
      20     4.87033860     1.00000000
      21     6.04296259     1.00000000
      22     6.20818336     1.00000000
      23     6.27967792     1.00000000
      24     6.79445765     1.00000000
      25     8.54047164     0.00000000
      26     8.83913664     0.00000000
      27     9.08929490     0.00000000
      28     9.14209149     0.00000000
      29     9.15755073     0.00000000
      30    10.93791845     0.00000000
      31    11.15176248     0.00000000
      32    13.06723074     0.00000000
      33    13.07997434     0.00000000
      34    14.01112447     0.00000000
#  Point 3      Spin 1:     0.00000000     0.16666667     0.00000000       0.14285714
#   Band    Energy [eV]     Occupation
       1   -51.67134603     1.00000000
       2   -51.65909173     1.00000000
       3   -26.43857878     1.00000000
       4   -26.43657244     1.00000000
       5   -26.30813436     1.00000000
       6   -26.30656409     1.00000000
       7   -26.27679273     1.00000000
       8   -26.25048575     1.00000000
       9   -11.20037932     1.00000000
      10   -10.18331098     1.00000000
      11    -9.57694450     1.00000000
      12    -9.52432789     1.00000000
      13     1.27047221     1.00000000
      14     1.62834189     1.00000000
      15     2.24603688     1.00000000
      16     3.05538830     1.00000000
      17     3.06573781     1.00000000
      18     4.10236726     1.00000000
      19     4.20985254     1.00000000
      20     4.88205096     1.00000000
      21     5.86128312     1.00000000
      22     5.91981827     1.00000000
      23     6.13876812     1.00000000
      24     6.72317231     1.00000000
      25     8.65084419     0.00000000
      26     8.97791489     0.00000000
      27     9.21988141     0.00000000
      28     9.23367903     0.00000000
      29     9.26238813     0.00000000
      30    11.03269687     0.00000000
      31    11.10453651     0.00000000
      32    13.00699472     0.00000000
      33    13.02766789     0.00000000
      34    13.87623755     0.00000000
#  Point 3      Spin 2:     0.00000000     0.16666667     0.00000000       0.14285714
#   Band    Energy [eV]     Occupation
       1   -51.67134603     1.00000000
       2   -51.65909173     1.00000000
       3   -26.43857878     1.00000000
       4   -26.43657244     1.00000000
       5   -26.30813436     1.00000000
       6   -26.30656409     1.00000000
       7   -26.27679273     1.00000000
       8   -26.25048575     1.00000000
       9   -11.20037932     1.00000000
      10   -10.18331098     1.00000000
      11    -9.57694450     1.00000000
      12    -9.52432789     1.00000000
      13     1.27047221     1.00000000
      14     1.62834189     1.00000000
      15     2.24603688     1.00000000
      16     3.05538830     1.00000000
      17     3.06573781     1.00000000
      18     4.10236726     1.00000000
      19     4.20985254     1.00000000
      20     4.88205096     1.00000000
      21     5.86128312     1.00000000
      22     5.91981827     1.00000000
      23     6.13876812     1.00000000
      24     6.72317231     1.00000000
      25     8.65084419     0.00000000
      26     8.97791489     0.00000000
      27     9.21988141     0.00000000
      28     9.23367903     0.00000000
      29     9.26238813     0.00000000
      30    11.03269687     0.00000000
      31    11.10453651     0.00000000
      32    13.00699472     0.00000000
      33    13.02766789     0.00000000
      34    13.87623755     0.00000000
#  Point 4      Spin 1:     0.00000000     0.25000000     0.00000000       0.14285714
#   Band    Energy [eV]     Occupation
       1   -51.67041230     1.00000000
       2   -51.65997363     1.00000000
       3   -26.42998038     1.00000000
       4   -26.42751137     1.00000000
       5   -26.31824852     1.00000000
       6   -26.31616698     1.00000000
       7   -26.27468917     1.00000000
       8   -26.25257908     1.00000000
       9   -11.09119981     1.00000000
      10   -10.21540757     1.00000000
      11    -9.65266256     1.00000000
      12    -9.56109871     1.00000000
      13     1.45288973     1.00000000
      14     1.74162089     1.00000000
      15     2.46815042     1.00000000
      16     3.06723023     1.00000000
      17     3.08133939     1.00000000
      18     3.94114655     1.00000000
      19     4.11877807     1.00000000
      20     4.91131707     1.00000000
      21     5.38354342     1.00000000
      22     5.74625449     1.00000000
      23     6.00831967     1.00000000
      24     6.59840217     1.00000000
      25     8.79512807     0.00000000
      26     9.11416123     0.00000000
      27     9.33120700     0.00000000
      28     9.39826593     0.00000000
      29     9.43613841     0.00000000
      30    10.88376210     0.00000000
      31    11.34952113     0.00000000
      32    12.92182636     0.00000000
      33    12.95337804     0.00000000
      34    13.64753176     0.00000000
#  Point 4      Spin 2:     0.00000000     0.25000000     0.00000000       0.14285714
#   Band    Energy [eV]     Occupation
       1   -51.67041230     1.00000000
       2   -51.65997363     1.00000000
       3   -26.42998038     1.00000000
       4   -26.42751137     1.00000000
       5   -26.31824852     1.00000000
       6   -26.31616698     1.00000000
       7   -26.27468917     1.00000000
       8   -26.25257908     1.00000000
       9   -11.09119981     1.00000000
      10   -10.21540757     1.00000000
      11    -9.65266256     1.00000000
      12    -9.56109871     1.00000000
      13     1.45288973     1.00000000
      14     1.74162089     1.00000000
      15     2.46815042     1.00000000
      16     3.06723023     1.00000000
      17     3.08133939     1.00000000
      18     3.94114655     1.00000000
      19     4.11877807     1.00000000
      20     4.91131707     1.00000000
      21     5.38354342     1.00000000
      22     5.74625449     1.00000000
      23     6.00831967     1.00000000
      24     6.59840217     1.00000000
      25     8.79512807     0.00000000
      26     9.11416123     0.00000000
      27     9.33120700     0.00000000
      28     9.39826593     0.00000000
      29     9.43613841     0.00000000
      30    10.88376210     0.00000000
      31    11.34952113     0.00000000
      32    12.92182636     0.00000000
      33    12.95337804     0.00000000
      34    13.64753176     0.00000000
#  Point 5      Spin 1:     0.00000000     0.33333333     0.00000000       0.14285714
#   Band    Energy [eV]     Occupation
       1   -51.66924970     1.00000000
       2   -51.66110908     1.00000000
       3   -26.41944958     1.00000000
       4   -26.41636513     1.00000000
       5   -26.33036221     1.00000000
       6   -26.32766364     1.00000000
       7   -26.27207828     1.00000000
       8   -26.25517878     1.00000000
       9   -10.94740525     1.00000000
      10   -10.29476639     1.00000000
      11    -9.70657769     1.00000000
      12    -9.60612300     1.00000000
      13     1.65274704     1.00000000
      14     1.86143568     1.00000000
      15     2.79106124     1.00000000
      16     3.08048779     1.00000000
      17     3.09550574     1.00000000
      18     3.78438980     1.00000000
      19     3.97718304     1.00000000
      20     4.83752296     1.00000000
      21     4.96870913     1.00000000
      22     5.55217399     1.00000000
      23     5.95459631     1.00000000
      24     6.43810530     1.00000000
      25     8.94260879     0.00000000
      26     9.19603303     0.00000000
      27     9.45311906     0.00000000
      28     9.52339465     0.00000000
      29     9.67254704     0.00000000
      30    10.67943136     0.00000000
      31    11.69852050     0.00000000
      32    12.83663224     0.00000000
      33    12.87169326     0.00000000
      34    13.33645855     0.00000000
#  Point 5      Spin 2:     0.00000000     0.33333333     0.00000000       0.14285714
#   Band    Energy [eV]     Occupation
       1   -51.66924970     1.00000000
       2   -51.66110908     1.00000000
       3   -26.41944958     1.00000000
       4   -26.41636513     1.00000000
       5   -26.33036221     1.00000000
       6   -26.32766364     1.00000000
       7   -26.27207828     1.00000000
       8   -26.25517878     1.00000000
       9   -10.94740525     1.00000000
      10   -10.29476639     1.00000000
      11    -9.70657769     1.00000000
      12    -9.60612300     1.00000000
      13     1.65274704     1.00000000
      14     1.86143568     1.00000000
      15     2.79106124     1.00000000
      16     3.08048779     1.00000000
      17     3.09550574     1.00000000
      18     3.78438980     1.00000000
      19     3.97718304     1.00000000
      20     4.83752296     1.00000000
      21     4.96870913     1.00000000
      22     5.55217399     1.00000000
      23     5.95459631     1.00000000
      24     6.43810530     1.00000000
      25     8.94260879     0.00000000
      26     9.19603303     0.00000000
      27     9.45311906     0.00000000
      28     9.52339465     0.00000000
      29     9.67254704     0.00000000
      30    10.67943136     0.00000000
      31    11.69852050     0.00000000
      32    12.83663224     0.00000000
      33    12.87169326     0.00000000
      34    13.33645855     0.00000000
#  Point 6      Spin 1:     0.00000000     0.41666667     0.00000000       0.14285714
#   Band    Energy [eV]     Occupation
       1   -51.66809448     1.00000000
       2   -51.66225404     1.00000000
       3   -26.40945378     1.00000000
       4   -26.40575932     1.00000000
       5   -26.34162671     1.00000000
       6   -26.33837106     1.00000000
       7   -26.26947121     1.00000000
       8   -26.25777707     1.00000000
       9   -10.77883765     1.00000000
      10   -10.42948413     1.00000000
      11    -9.71783261     1.00000000
      12    -9.65338280     1.00000000
      13     1.82754151     1.00000000
      14     1.94174246     1.00000000
      15     3.09229733     1.00000000
      16     3.10369528     1.00000000
      17     3.21050644     1.00000000
      18     3.68679188     1.00000000
      19     3.81932852     1.00000000
      20     4.27103163     1.00000000
      21     5.06249082     1.00000000
      22     5.36245217     1.00000000
      23     5.99430317     1.00000000
      24     6.26586971     1.00000000
      25     9.07093441     0.00000000
      26     9.21076471     0.00000000
      27     9.55649068     0.00000000
      28     9.60215779     0.00000000
      29     9.92749025     0.00000000
      30    10.44318284     0.00000000
      31    12.10894347     0.00000000
      32    12.77765256     0.00000000
      33    12.80319090     0.00000000
      34    12.96017231     0.00000000
#  Point 6      Spin 2:     0.00000000     0.41666667     0.00000000       0.14285714
#   Band    Energy [eV]     Occupation
       1   -51.66809448     1.00000000
       2   -51.66225404     1.00000000
       3   -26.40945378     1.00000000
       4   -26.40575932     1.00000000
       5   -26.34162671     1.00000000
       6   -26.33837106     1.00000000
       7   -26.26947121     1.00000000
       8   -26.25777707     1.00000000
       9   -10.77883765     1.00000000
      10   -10.42948413     1.00000000
      11    -9.71783261     1.00000000
      12    -9.65338280     1.00000000
      13     1.82754151     1.00000000
      14     1.94174246     1.00000000
      15     3.09229733     1.00000000
      16     3.10369528     1.00000000
      17     3.21050644     1.00000000
      18     3.68679188     1.00000000
      19     3.81932852     1.00000000
      20     4.27103163     1.00000000
      21     5.06249082     1.00000000
      22     5.36245217     1.00000000
      23     5.99430317     1.00000000
      24     6.26586971     1.00000000
      25     9.07093441     0.00000000
      26     9.21076471     0.00000000
      27     9.55649068     0.00000000
      28     9.60215779     0.00000000
      29     9.92749025     0.00000000
      30    10.44318284     0.00000000
      31    12.10894347     0.00000000
      32    12.77765256     0.00000000
      33    12.80319090     0.00000000
      34    12.96017231     0.00000000
#  Point 7      Spin 1:     0.00000000     0.50000000     0.00000000       0.14285714
#   Band    Energy [eV]     Occupation
       1   -51.66752540     1.00000000
       2   -51.66282048     1.00000000
       3   -26.40487090     1.00000000
       4   -26.40085645     1.00000000
       5   -26.34675644     1.00000000
       6   -26.34322324     1.00000000
       7   -26.26815747     1.00000000
       8   -26.25908748     1.00000000
       9   -10.60038246     1.00000000
      10   -10.59872994     1.00000000
      11    -9.69510797     1.00000000
      12    -9.69421634     1.00000000
      13     1.93324521     1.00000000
      14     1.93529627     1.00000000
      15     3.09784715     1.00000000
      16     3.10543816     1.00000000
      17     3.65872962     1.00000000
      18     3.65937975     1.00000000
      19     3.75669943     1.00000000
      20     3.75929688     1.00000000
      21     5.19144802     1.00000000
      22     5.19916745     1.00000000
      23     6.10806329     1.00000000
      24     6.10823534     1.00000000
      25     9.15821028     0.00000000
      26     9.17150545     0.00000000
      27     9.60849967     0.00000000
      28     9.61729234     0.00000000
      29    10.18624219     0.00000000
      30    10.19059286     0.00000000
      31    12.53262631     0.00000000
      32    12.55000359     0.00000000
      33    12.76003719     0.00000000
      34    12.77291063     0.00000000
#  Point 7      Spin 2:     0.00000000     0.50000000     0.00000000       0.14285714
#   Band    Energy [eV]     Occupation
       1   -51.66752540     1.00000000
       2   -51.66282048     1.00000000
       3   -26.40487090     1.00000000
       4   -26.40085645     1.00000000
       5   -26.34675644     1.00000000
       6   -26.34322324     1.00000000
       7   -26.26815747     1.00000000
       8   -26.25908748     1.00000000
       9   -10.60038246     1.00000000
      10   -10.59872994     1.00000000
      11    -9.69510797     1.00000000
      12    -9.69421634     1.00000000
      13     1.93324521     1.00000000
      14     1.93529627     1.00000000
      15     3.09784715     1.00000000
      16     3.10543816     1.00000000
      17     3.65872962     1.00000000
      18     3.65937975     1.00000000
      19     3.75669943     1.00000000
      20     3.75929688     1.00000000
      21     5.19144802     1.00000000
      22     5.19916745     1.00000000
      23     6.10806329     1.00000000
      24     6.10823534     1.00000000
      25     9.15821028     0.00000000
      26     9.17150545     0.00000000
      27     9.60849967     0.00000000
      28     9.61729234     0.00000000
      29    10.18624219     0.00000000
      30    10.19059286     0.00000000
      31    12.53262631     0.00000000
      32    12.55000359     0.00000000
      33    12.76003719     0.00000000
      34    12.77291063     0.00000000
 KPOINTS| Time for k-point line                                            0.239

 KPOINTS| Number of kpoint groups                                              1
 KPOINTS| Size of each kpoint group                                           12
 KPOINTS| Number of kpoints per group                                          7
 KPOINTS| Number of k-points in set    2                                       7
 KPOINTS| In units of b-vector [2pi/Bohr]
 KPOINTS| Special point     1           X     0.000000     0.500000     0.000000
 KPOINTS| Special point     2           M     0.500000     0.500000     0.000000
#  Point 1      Spin 1:     0.00000000     0.50000000     0.00000000       0.14285714
#   Band    Energy [eV]     Occupation
       1   -51.66752540     1.00000000
       2   -51.66282048     1.00000000
       3   -26.40487090     1.00000000
       4   -26.40085645     1.00000000
       5   -26.34675644     1.00000000
       6   -26.34322324     1.00000000
       7   -26.26815747     1.00000000
       8   -26.25908748     1.00000000
       9   -10.60038246     1.00000000
      10   -10.59872994     1.00000000
      11    -9.69510797     1.00000000
      12    -9.69421634     1.00000000
      13     1.93324521     1.00000000
      14     1.93529627     1.00000000
      15     3.09784715     1.00000000
      16     3.10543816     1.00000000
      17     3.65872962     1.00000000
      18     3.65937975     1.00000000
      19     3.75669943     1.00000000
      20     3.75929688     1.00000000
      21     5.19144802     1.00000000
      22     5.19916745     1.00000000
      23     6.10806329     1.00000000
      24     6.10823534     1.00000000
      25     9.15821028     0.00000000
      26     9.17150545     0.00000000
      27     9.60849967     0.00000000
      28     9.61729234     0.00000000
      29    10.18624219     0.00000000
      30    10.19059286     0.00000000
      31    12.53262631     0.00000000
      32    12.55000359     0.00000000
      33    12.76003719     0.00000000
      34    12.77291063     0.00000000
#  Point 1      Spin 2:     0.00000000     0.50000000     0.00000000       0.14285714
#   Band    Energy [eV]     Occupation
       1   -51.66752540     1.00000000
       2   -51.66282048     1.00000000
       3   -26.40487090     1.00000000
       4   -26.40085645     1.00000000
       5   -26.34675644     1.00000000
       6   -26.34322324     1.00000000
       7   -26.26815747     1.00000000
       8   -26.25908748     1.00000000
       9   -10.60038246     1.00000000
      10   -10.59872994     1.00000000
      11    -9.69510797     1.00000000
      12    -9.69421634     1.00000000
      13     1.93324521     1.00000000
      14     1.93529627     1.00000000
      15     3.09784715     1.00000000
      16     3.10543816     1.00000000
      17     3.65872962     1.00000000
      18     3.65937975     1.00000000
      19     3.75669943     1.00000000
      20     3.75929688     1.00000000
      21     5.19144802     1.00000000
      22     5.19916745     1.00000000
      23     6.10806329     1.00000000
      24     6.10823534     1.00000000
      25     9.15821028     0.00000000
      26     9.17150545     0.00000000
      27     9.60849967     0.00000000
      28     9.61729234     0.00000000
      29    10.18624219     0.00000000
      30    10.19059286     0.00000000
      31    12.53262631     0.00000000
      32    12.55000359     0.00000000
      33    12.76003719     0.00000000
      34    12.77291063     0.00000000
#  Point 2      Spin 1:     0.08333333     0.50000000     0.00000000       0.14285714
#   Band    Energy [eV]     Occupation
       1   -51.66752329     1.00000000
       2   -51.66281728     1.00000000
       3   -26.41067030     1.00000000
       4   -26.40731551     1.00000000
       5   -26.34028553     1.00000000
       6   -26.33741184     1.00000000
       7   -26.26814860     1.00000000
       8   -26.25907849     1.00000000
       9   -10.60486694     1.00000000
      10   -10.60317236     1.00000000
      11    -9.68859263     1.00000000
      12    -9.68766725     1.00000000
      13     1.88214828     1.00000000
      14     1.88451862     1.00000000
      15     3.08914429     1.00000000
      16     3.09671745     1.00000000
      17     3.56039162     1.00000000
      18     3.56113381     1.00000000
      19     3.96398710     1.00000000
      20     3.96649871     1.00000000
      21     5.21220187     1.00000000
      22     5.22004350     1.00000000
      23     6.05781129     1.00000000
      24     6.05804202     1.00000000
      25     9.12565307     0.00000000
      26     9.13911331     0.00000000
      27     9.57560797     0.00000000
      28     9.58434333     0.00000000
      29    10.20616266     0.00000000
      30    10.21053588     0.00000000
      31    12.50985089     0.00000000
      32    12.52774472     0.00000000
      33    12.78440874     0.00000000
      34    12.79716480     0.00000000
#  Point 2      Spin 2:     0.08333333     0.50000000     0.00000000       0.14285714
#   Band    Energy [eV]     Occupation
       1   -51.66752329     1.00000000
       2   -51.66281728     1.00000000
       3   -26.41067030     1.00000000
       4   -26.40731551     1.00000000
       5   -26.34028553     1.00000000
       6   -26.33741184     1.00000000
       7   -26.26814860     1.00000000
       8   -26.25907849     1.00000000
       9   -10.60486694     1.00000000
      10   -10.60317236     1.00000000
      11    -9.68859263     1.00000000
      12    -9.68766725     1.00000000
      13     1.88214828     1.00000000
      14     1.88451862     1.00000000
      15     3.08914429     1.00000000
      16     3.09671745     1.00000000
      17     3.56039162     1.00000000
      18     3.56113381     1.00000000
      19     3.96398710     1.00000000
      20     3.96649871     1.00000000
      21     5.21220187     1.00000000
      22     5.22004350     1.00000000
      23     6.05781129     1.00000000
      24     6.05804202     1.00000000
      25     9.12565307     0.00000000
      26     9.13911331     0.00000000
      27     9.57560797     0.00000000
      28     9.58434333     0.00000000
      29    10.20616266     0.00000000
      30    10.21053588     0.00000000
      31    12.50985089     0.00000000
      32    12.52774472     0.00000000
      33    12.78440874     0.00000000
      34    12.79716480     0.00000000
#  Point 3      Spin 1:     0.16666667     0.50000000     0.00000000       0.14285714
#   Band    Energy [eV]     Occupation
       1   -51.66752360     1.00000000
       2   -51.66281450     1.00000000
       3   -26.42312145     1.00000000
       4   -26.42060252     1.00000000
       5   -26.32696397     1.00000000
       6   -26.32492568     1.00000000
       7   -26.26812441     1.00000000
       8   -26.25905395     1.00000000
       9   -10.61675344     1.00000000
      10   -10.61495712     1.00000000
      11    -9.67096831     1.00000000
      12    -9.66996735     1.00000000
      13     1.75243274     1.00000000
      14     1.75530911     1.00000000
      15     3.06598038     1.00000000
      16     3.07350661     1.00000000
      17     3.54336220     1.00000000
      18     3.54377694     1.00000000
      19     4.27364811     1.00000000
      20     4.27649067     1.00000000
      21     5.26901724     1.00000000
      22     5.27719287     1.00000000
      23     5.92292360     1.00000000
      24     5.92335128     1.00000000
      25     9.03077676     0.00000000
      26     9.04468691     0.00000000
      27     9.48692905     0.00000000
      28     9.49554994     0.00000000
      29    10.25795306     0.00000000
      30    10.26233130     0.00000000
      31    12.45073875     0.00000000
      32    12.46999126     0.00000000
      33    12.84904683     0.00000000
      34    12.86151380     0.00000000
#  Point 3      Spin 2:     0.16666667     0.50000000     0.00000000       0.14285714
#   Band    Energy [eV]     Occupation
       1   -51.66752360     1.00000000
       2   -51.66281450     1.00000000
       3   -26.42312145     1.00000000
       4   -26.42060252     1.00000000
       5   -26.32696397     1.00000000
       6   -26.32492568     1.00000000
       7   -26.26812441     1.00000000
       8   -26.25905395     1.00000000
       9   -10.61675344     1.00000000
      10   -10.61495712     1.00000000
      11    -9.67096831     1.00000000
      12    -9.66996735     1.00000000
      13     1.75243274     1.00000000
      14     1.75530911     1.00000000
      15     3.06598038     1.00000000
      16     3.07350661     1.00000000
      17     3.54336220     1.00000000
      18     3.54377694     1.00000000
      19     4.27364811     1.00000000
      20     4.27649067     1.00000000
      21     5.26901724     1.00000000
      22     5.27719287     1.00000000
      23     5.92292360     1.00000000
      24     5.92335128     1.00000000
      25     9.03077676     0.00000000
      26     9.04468691     0.00000000
      27     9.48692905     0.00000000
      28     9.49554994     0.00000000
      29    10.25795306     0.00000000
      30    10.26233130     0.00000000
      31    12.45073875     0.00000000
      32    12.46999126     0.00000000
      33    12.84904683     0.00000000
      34    12.86151380     0.00000000
#  Point 4      Spin 1:     0.25000000     0.50000000     0.00000000       0.14285714
#   Band    Energy [eV]     Occupation
       1   -51.66753987     1.00000000
       2   -51.66282621     1.00000000
       3   -26.43619402     1.00000000
       4   -26.43417033     1.00000000
       5   -26.31334182     1.00000000
       6   -26.31179799     1.00000000
       7   -26.26809142     1.00000000
       8   -26.25902046     1.00000000
       9   -10.63221710     1.00000000
      10   -10.63030576     1.00000000
      11    -9.64711588     1.00000000
      12    -9.64603985     1.00000000
      13     1.59431069     1.00000000
      14     1.59751828     1.00000000
      15     3.03566850     1.00000000
      16     3.04313458     1.00000000
      17     3.62565093     1.00000000
      18     3.62597066     1.00000000
      19     4.57592577     1.00000000
      20     4.57871615     1.00000000
      21     5.34714815     1.00000000
      22     5.35578709     1.00000000
      23     5.75335625     1.00000000
      24     5.75427829     1.00000000
      25     8.88521634     0.00000000
      26     8.89975915     0.00000000
      27     9.36796163     0.00000000
      28     9.37651581     0.00000000
      29    10.32243221     0.00000000
      30    10.32676419     0.00000000
      31    12.37679277     0.00000000
      32    12.39779526     0.00000000
      33    12.93324819     0.00000000
      34    12.94538204     0.00000000
#  Point 4      Spin 2:     0.25000000     0.50000000     0.00000000       0.14285714
#   Band    Energy [eV]     Occupation
       1   -51.66753987     1.00000000
       2   -51.66282621     1.00000000
       3   -26.43619402     1.00000000
       4   -26.43417033     1.00000000
       5   -26.31334182     1.00000000
       6   -26.31179799     1.00000000
       7   -26.26809142     1.00000000
       8   -26.25902046     1.00000000
       9   -10.63221710     1.00000000
      10   -10.63030576     1.00000000
      11    -9.64711588     1.00000000
      12    -9.64603985     1.00000000
      13     1.59431069     1.00000000
      14     1.59751828     1.00000000
      15     3.03566850     1.00000000
      16     3.04313458     1.00000000
      17     3.62565093     1.00000000
      18     3.62597066     1.00000000
      19     4.57592577     1.00000000
      20     4.57871615     1.00000000
      21     5.34714815     1.00000000
      22     5.35578709     1.00000000
      23     5.75335625     1.00000000
      24     5.75427829     1.00000000
      25     8.88521634     0.00000000
      26     8.89975915     0.00000000
      27     9.36796163     0.00000000
      28     9.37651581     0.00000000
      29    10.32243221     0.00000000
      30    10.32676419     0.00000000
      31    12.37679277     0.00000000
      32    12.39779526     0.00000000
      33    12.93324819     0.00000000
      34    12.94538204     0.00000000
#  Point 5      Spin 1:     0.33333333     0.50000000     0.00000000       0.14285714
#   Band    Energy [eV]     Occupation
       1   -51.66757744     1.00000000
       2   -51.66285878     1.00000000
       3   -26.44692859     1.00000000
       4   -26.44517373     1.00000000
       5   -26.30227056     1.00000000
       6   -26.30099457     1.00000000
       7   -26.26805849     1.00000000
       8   -26.25898700     1.00000000
       9   -10.64691004     1.00000000
      10   -10.64490369     1.00000000
      11    -9.62317652     1.00000000
      12    -9.62204756     1.00000000
      13     1.45289847     1.00000000
      14     1.45627727     1.00000000
      15     3.00673146     1.00000000
      16     3.01414144     1.00000000
      17     3.77484160     1.00000000
      18     3.77523948     1.00000000
      19     4.75745681     1.00000000
      20     4.75937176     1.00000000
      21     5.42627560     1.00000000
      22     5.43539612     1.00000000
      23     5.64661793     1.00000000
      24     5.64873588     1.00000000
      25     8.71647384     0.00000000
      26     8.73171297     0.00000000
      27     9.25062019     0.00000000
      28     9.25920143     0.00000000
      29    10.37963065     0.00000000
      30    10.38391733     0.00000000
      31    12.30990341     0.00000000
      32    12.33255376     0.00000000
      33    13.01337460     0.00000000
      34    13.02523123     0.00000000
#  Point 5      Spin 2:     0.33333333     0.50000000     0.00000000       0.14285714
#   Band    Energy [eV]     Occupation
       1   -51.66757744     1.00000000
       2   -51.66285878     1.00000000
       3   -26.44692859     1.00000000
       4   -26.44517373     1.00000000
       5   -26.30227056     1.00000000
       6   -26.30099457     1.00000000
       7   -26.26805849     1.00000000
       8   -26.25898700     1.00000000
       9   -10.64691004     1.00000000
      10   -10.64490369     1.00000000
      11    -9.62317652     1.00000000
      12    -9.62204756     1.00000000
      13     1.45289847     1.00000000
      14     1.45627727     1.00000000
      15     3.00673146     1.00000000
      16     3.01414144     1.00000000
      17     3.77484160     1.00000000
      18     3.77523948     1.00000000
      19     4.75745681     1.00000000
      20     4.75937176     1.00000000
      21     5.42627560     1.00000000
      22     5.43539612     1.00000000
      23     5.64661793     1.00000000
      24     5.64873588     1.00000000
      25     8.71647384     0.00000000
      26     8.73171297     0.00000000
      27     9.25062019     0.00000000
      28     9.25920143     0.00000000
      29    10.37963065     0.00000000
      30    10.38391733     0.00000000
      31    12.30990341     0.00000000
      32    12.33255376     0.00000000
      33    13.01337460     0.00000000
      34    13.02523123     0.00000000
#  Point 6      Spin 1:     0.41666667     0.50000000     0.00000000       0.14285714
#   Band    Energy [eV]     Occupation
       1   -51.66762170     1.00000000
       2   -51.66289899     1.00000000
       3   -26.45385566     1.00000000
       4   -26.45223501     1.00000000
       5   -26.29514534     1.00000000
       6   -26.29400268     1.00000000
       7   -26.26803440     1.00000000
       8   -26.25896252     1.00000000
       9   -10.65724256     1.00000000
      10   -10.65517624     1.00000000
      11    -9.60532873     1.00000000
      12    -9.60417127     1.00000000
      13     1.35750253     1.00000000
      14     1.36096100     1.00000000
      15     2.98633297     1.00000000
      16     2.99370416     1.00000000
      17     3.94333242     1.00000000
      18     3.94392494     1.00000000
      19     4.73818719     1.00000000
      20     4.73901534     1.00000000
      21     5.48509620     1.00000000
      22     5.49458753     1.00000000
      23     5.67427767     1.00000000
      24     5.67771890     1.00000000
      25     8.57317863     0.00000000
      26     8.58902433     0.00000000
      27     9.16524462     0.00000000
      28     9.17390251     0.00000000
      29    10.41681324     0.00000000
      30    10.42108367     0.00000000
      31    12.26492127     0.00000000
      32    12.28872272     0.00000000
      33    13.06978020     0.00000000
      34    13.08146216     0.00000000
#  Point 6      Spin 2:     0.41666667     0.50000000     0.00000000       0.14285714
#   Band    Energy [eV]     Occupation
       1   -51.66762170     1.00000000
       2   -51.66289899     1.00000000
       3   -26.45385566     1.00000000
       4   -26.45223501     1.00000000
       5   -26.29514534     1.00000000
       6   -26.29400268     1.00000000
       7   -26.26803440     1.00000000
       8   -26.25896252     1.00000000
       9   -10.65724256     1.00000000
      10   -10.65517624     1.00000000
      11    -9.60532873     1.00000000
      12    -9.60417127     1.00000000
      13     1.35750253     1.00000000
      14     1.36096100     1.00000000
      15     2.98633297     1.00000000
      16     2.99370416     1.00000000
      17     3.94333242     1.00000000
      18     3.94392494     1.00000000
      19     4.73818719     1.00000000
      20     4.73901534     1.00000000
      21     5.48509620     1.00000000
      22     5.49458753     1.00000000
      23     5.67427767     1.00000000
      24     5.67771890     1.00000000
      25     8.57317863     0.00000000
      26     8.58902433     0.00000000
      27     9.16524462     0.00000000
      28     9.17390251     0.00000000
      29    10.41681324     0.00000000
      30    10.42108367     0.00000000
      31    12.26492127     0.00000000
      32    12.28872272     0.00000000
      33    13.06978020     0.00000000
      34    13.08146216     0.00000000
#  Point 7      Spin 1:     0.50000000     0.50000000     0.00000000       0.14285714
#   Band    Energy [eV]     Occupation
       1   -51.66764228     1.00000000
       2   -51.66291798     1.00000000
       3   -26.45624002     1.00000000
       4   -26.45466027     1.00000000
       5   -26.29269230     1.00000000
       6   -26.29159019     1.00000000
       7   -26.26802559     1.00000000
       8   -26.25895356     1.00000000
       9   -10.66094370     1.00000000
      10   -10.65885711     1.00000000
      11    -9.59867532     1.00000000
      12    -9.59750922     1.00000000
      13     1.32400635     1.00000000
      14     1.32748837     1.00000000
      15     2.97902079     1.00000000
      16     2.98637822     1.00000000
      17     4.03159182     1.00000000
      18     4.03235395     1.00000000
      19     4.67896612     1.00000000
      20     4.67956067     1.00000000
      21     5.50685882     1.00000000
      22     5.51649088     1.00000000
      23     5.71416518     1.00000000
      24     5.71803289     1.00000000
      25     8.51527044     0.00000000
      26     8.53137667     0.00000000
      27     9.13403100     0.00000000
      28     9.14272897     0.00000000
      29    10.42940855     0.00000000
      30    10.43367746     0.00000000
      31    12.24921969     0.00000000
      32    12.27343209     0.00000000
      33    13.08999330     0.00000000
      34    13.10161644     0.00000000
#  Point 7      Spin 2:     0.50000000     0.50000000     0.00000000       0.14285714
#   Band    Energy [eV]     Occupation
       1   -51.66764228     1.00000000
       2   -51.66291798     1.00000000
       3   -26.45624002     1.00000000
       4   -26.45466027     1.00000000
       5   -26.29269230     1.00000000
       6   -26.29159019     1.00000000
       7   -26.26802559     1.00000000
       8   -26.25895356     1.00000000
       9   -10.66094370     1.00000000
      10   -10.65885711     1.00000000
      11    -9.59867532     1.00000000
      12    -9.59750922     1.00000000
      13     1.32400635     1.00000000
      14     1.32748837     1.00000000
      15     2.97902079     1.00000000
      16     2.98637822     1.00000000
      17     4.03159182     1.00000000
      18     4.03235395     1.00000000
      19     4.67896612     1.00000000
      20     4.67956067     1.00000000
      21     5.50685882     1.00000000
      22     5.51649088     1.00000000
      23     5.71416518     1.00000000
      24     5.71803289     1.00000000
      25     8.51527044     0.00000000
      26     8.53137667     0.00000000
      27     9.13403100     0.00000000
      28     9.14272897     0.00000000
      29    10.42940855     0.00000000
      30    10.43367746     0.00000000
      31    12.24921969     0.00000000
      32    12.27343209     0.00000000
      33    13.08999330     0.00000000
      34    13.10161644     0.00000000
 KPOINTS| Time for k-point line                                            0.229

 KPOINTS| Number of kpoint groups                                              3
 KPOINTS| Size of each kpoint group                                            4
 KPOINTS| Number of kpoints per group                                          3
 KPOINTS| Number of k-points in set    3                                       9
 KPOINTS| In units of b-vector [2pi/Bohr]
 KPOINTS| Special point     1           M     0.500000     0.500000     0.000000
 KPOINTS| Special point     2       GAMMA     0.000000     0.000000     0.000000
#  Point 1      Spin 1:     0.50000000     0.50000000     0.00000000       0.11111111
#   Band    Energy [eV]     Occupation
       1   -51.66764228     1.00000000
       2   -51.66291798     1.00000000
       3   -26.45624002     1.00000000
       4   -26.45466027     1.00000000
       5   -26.29269230     1.00000000
       6   -26.29159019     1.00000000
       7   -26.26802559     1.00000000
       8   -26.25895356     1.00000000
       9   -10.66094370     1.00000000
      10   -10.65885711     1.00000000
      11    -9.59867532     1.00000000
      12    -9.59750922     1.00000000
      13     1.32400635     1.00000000
      14     1.32748837     1.00000000
      15     2.97902079     1.00000000
      16     2.98637822     1.00000000
      17     4.03159182     1.00000000
      18     4.03235395     1.00000000
      19     4.67896612     1.00000000
      20     4.67956067     1.00000000
      21     5.50685882     1.00000000
      22     5.51649088     1.00000000
      23     5.71416518     1.00000000
      24     5.71803289     1.00000000
      25     8.51527044     0.00000000
      26     8.53137667     0.00000000
      27     9.13403100     0.00000000
      28     9.14272897     0.00000000
      29    10.42940855     0.00000000
      30    10.43367746     0.00000000
      31    12.24921969     0.00000000
      32    12.27343209     0.00000000
      33    13.08999330     0.00000000
      34    13.10161644     0.00000000
#  Point 1      Spin 2:     0.50000000     0.50000000     0.00000000       0.11111111
#   Band    Energy [eV]     Occupation
       1   -51.66764228     1.00000000
       2   -51.66291798     1.00000000
       3   -26.45624002     1.00000000
       4   -26.45466027     1.00000000
       5   -26.29269230     1.00000000
       6   -26.29159019     1.00000000
       7   -26.26802559     1.00000000
       8   -26.25895356     1.00000000
       9   -10.66094370     1.00000000
      10   -10.65885711     1.00000000
      11    -9.59867532     1.00000000
      12    -9.59750922     1.00000000
      13     1.32400635     1.00000000
      14     1.32748837     1.00000000
      15     2.97902079     1.00000000
      16     2.98637822     1.00000000
      17     4.03159182     1.00000000
      18     4.03235395     1.00000000
      19     4.67896612     1.00000000
      20     4.67956067     1.00000000
      21     5.50685882     1.00000000
      22     5.51649088     1.00000000
      23     5.71416518     1.00000000
      24     5.71803289     1.00000000
      25     8.51527044     0.00000000
      26     8.53137667     0.00000000
      27     9.13403100     0.00000000
      28     9.14272897     0.00000000
      29    10.42940855     0.00000000
      30    10.43367746     0.00000000
      31    12.24921969     0.00000000
      32    12.27343209     0.00000000
      33    13.08999330     0.00000000
      34    13.10161644     0.00000000
#  Point 2      Spin 1:     0.43750000     0.43750000     0.00000000       0.11111111
#   Band    Energy [eV]     Occupation
       1   -51.66763823     1.00000000
       2   -51.66287774     1.00000000
       3   -26.45426383     1.00000000
       4   -26.45130703     1.00000000
       5   -26.29671002     1.00000000
       6   -26.29294884     1.00000000
       7   -26.26807058     1.00000000
       8   -26.25892826     1.00000000
       9   -10.67992273     1.00000000
      10   -10.63180718     1.00000000
      11    -9.61645636     1.00000000
      12    -9.59415771     1.00000000
      13     1.32474712     1.00000000
      14     1.40118036     1.00000000
      15     2.98880612     1.00000000
      16     2.99282864     1.00000000
      17     3.83880944     1.00000000
      18     4.04203706     1.00000000
      19     4.64561992     1.00000000
      20     4.84387105     1.00000000
      21     5.45239123     1.00000000
      22     5.52347533     1.00000000
      23     5.54986486     1.00000000
      24     5.78688475     1.00000000
      25     8.51937534     0.00000000
      26     8.65020576     0.00000000
      27     9.13318694     0.00000000
      28     9.21168854     0.00000000
      29    10.38243624     0.00000000
      30    10.45272311     0.00000000
      31    12.22338197     0.00000000
      32    12.33369413     0.00000000
      33    13.04546540     0.00000000
      34    13.10165265     0.00000000
#  Point 2      Spin 2:     0.43750000     0.43750000     0.00000000       0.11111111
#   Band    Energy [eV]     Occupation
       1   -51.66763823     1.00000000
       2   -51.66287774     1.00000000
       3   -26.45426383     1.00000000
       4   -26.45130703     1.00000000
       5   -26.29671002     1.00000000
       6   -26.29294884     1.00000000
       7   -26.26807058     1.00000000
       8   -26.25892826     1.00000000
       9   -10.67992273     1.00000000
      10   -10.63180718     1.00000000
      11    -9.61645636     1.00000000
      12    -9.59415771     1.00000000
      13     1.32474712     1.00000000
      14     1.40118036     1.00000000
      15     2.98880612     1.00000000
      16     2.99282864     1.00000000
      17     3.83880944     1.00000000
      18     4.04203706     1.00000000
      19     4.64561992     1.00000000
      20     4.84387105     1.00000000
      21     5.45239123     1.00000000
      22     5.52347533     1.00000000
      23     5.54986486     1.00000000
      24     5.78688475     1.00000000
      25     8.51937534     0.00000000
      26     8.65020576     0.00000000
      27     9.13318694     0.00000000
      28     9.21168854     0.00000000
      29    10.38243624     0.00000000
      30    10.45272311     0.00000000
      31    12.22338197     0.00000000
      32    12.33369413     0.00000000
      33    13.04546540     0.00000000
      34    13.10165265     0.00000000
#  Point 3      Spin 1:     0.37500000     0.37500000     0.00000000       0.11111111
#   Band    Energy [eV]     Occupation
       1   -51.66777952     1.00000000
       2   -51.66264406     1.00000000
       3   -26.45313533     1.00000000
       4   -26.43751936     1.00000000
       5   -26.31084401     1.00000000
       6   -26.29367778     1.00000000
       7   -26.26852810     1.00000000
       8   -26.25852360     1.00000000
       9   -10.74131818     1.00000000
      10   -10.55039839     1.00000000
      11    -9.65967678     1.00000000
      12    -9.58402895     1.00000000
      13     1.32304746     1.00000000
      14     1.60259836     1.00000000
      15     2.99572779     1.00000000
      16     3.02859566     1.00000000
      17     3.48432225     1.00000000
      18     4.03331027     1.00000000
      19     4.56763378     1.00000000
      20     5.12427851     1.00000000
      21     5.21248215     1.00000000
      22     5.31367204     1.00000000
      23     5.54884533     1.00000000
      24     5.97099064     1.00000000
      25     8.52962479     0.00000000
      26     8.89497914     0.00000000
      27     9.13078631     0.00000000
      28     9.37904316     0.00000000
      29    10.24131019     0.00000000
      30    10.51560169     0.00000000
      31    12.08474663     0.00000000
      32    12.56371926     0.00000000
      33    12.93299528     0.00000000
      34    13.10171846     0.00000000
#  Point 3      Spin 2:     0.37500000     0.37500000     0.00000000       0.11111111
#   Band    Energy [eV]     Occupation
       1   -51.66777952     1.00000000
       2   -51.66264406     1.00000000
       3   -26.45313533     1.00000000
       4   -26.43751936     1.00000000
       5   -26.31084401     1.00000000
       6   -26.29367778     1.00000000
       7   -26.26852810     1.00000000
       8   -26.25852360     1.00000000
       9   -10.74131818     1.00000000
      10   -10.55039839     1.00000000
      11    -9.65967678     1.00000000
      12    -9.58402895     1.00000000
      13     1.32304746     1.00000000
      14     1.60259836     1.00000000
      15     2.99572779     1.00000000
      16     3.02859566     1.00000000
      17     3.48432225     1.00000000
      18     4.03331027     1.00000000
      19     4.56763378     1.00000000
      20     5.12427851     1.00000000
      21     5.21248215     1.00000000
      22     5.31367204     1.00000000
      23     5.54884533     1.00000000
      24     5.97099064     1.00000000
      25     8.52962479     0.00000000
      26     8.89497914     0.00000000
      27     9.13078631     0.00000000
      28     9.37904316     0.00000000
      29    10.24131019     0.00000000
      30    10.51560169     0.00000000
      31    12.08474663     0.00000000
      32    12.56371926     0.00000000
      33    12.93299528     0.00000000
      34    13.10171846     0.00000000
#  Point 4      Spin 1:     0.31250000     0.31250000     0.00000000       0.11111111
#   Band    Energy [eV]     Occupation
       1   -51.66832290     1.00000000
       2   -51.66202800     1.00000000
       3   -26.45144709     1.00000000
       4   -26.41866630     1.00000000
       5   -26.32981027     1.00000000
       6   -26.29476392     1.00000000
       7   -26.26989261     1.00000000
       8   -26.25722916     1.00000000
       9   -10.83829993     1.00000000
      10   -10.43334885     1.00000000
      11    -9.70414016     1.00000000
      12    -9.56777048     1.00000000
      13     1.31891714     1.00000000
      14     1.85278020     1.00000000
      15     3.00610761     1.00000000
      16     3.07051909     1.00000000
      17     3.11357225     1.00000000
      18     3.90297015     1.00000000
      19     4.47990048     1.00000000
      20     5.03525198     1.00000000
      21     5.14980149     1.00000000
      22     5.40366913     1.00000000
      23     5.59715004     1.00000000
      24     6.20094435     1.00000000
      25     8.54295577     0.00000000
      26     9.10714549     0.00000000
      27     9.12719727     0.00000000
      28     9.54961357     0.00000000
      29    10.02770488     0.00000000
      30    10.61691520     0.00000000
      31    11.86824450     0.00000000
      32    12.81196211     0.00000000
      33    12.89556240     0.00000000
      34    13.10170486     0.00000000
#  Point 4      Spin 2:     0.31250000     0.31250000     0.00000000       0.11111111
#   Band    Energy [eV]     Occupation
       1   -51.66832290     1.00000000
       2   -51.66202800     1.00000000
       3   -26.45144709     1.00000000
       4   -26.41866630     1.00000000
       5   -26.32981027     1.00000000
       6   -26.29476392     1.00000000
       7   -26.26989261     1.00000000
       8   -26.25722916     1.00000000
       9   -10.83829993     1.00000000
      10   -10.43334885     1.00000000
      11    -9.70414016     1.00000000
      12    -9.56777048     1.00000000
      13     1.31891714     1.00000000
      14     1.85278020     1.00000000
      15     3.00610761     1.00000000
      16     3.07051909     1.00000000
      17     3.11357225     1.00000000
      18     3.90297015     1.00000000
      19     4.47990048     1.00000000
      20     5.03525198     1.00000000
      21     5.14980149     1.00000000
      22     5.40366913     1.00000000
      23     5.59715004     1.00000000
      24     6.20094435     1.00000000
      25     8.54295577     0.00000000
      26     9.10714549     0.00000000
      27     9.12719727     0.00000000
      28     9.54961357     0.00000000
      29    10.02770488     0.00000000
      30    10.61691520     0.00000000
      31    11.86824450     0.00000000
      32    12.81196211     0.00000000
      33    12.89556240     0.00000000
      34    13.10170486     0.00000000
#  Point 5      Spin 1:     0.25000000     0.25000000     0.00000000       0.11111111
#   Band    Energy [eV]     Occupation
       1   -51.66925391     1.00000000
       2   -51.66107641     1.00000000
       3   -26.44945547     1.00000000
       4   -26.40515199     1.00000000
       5   -26.34292638     1.00000000
       6   -26.29603661     1.00000000
       7   -26.27205456     1.00000000
       8   -26.25513525     1.00000000
       9   -10.95887847     1.00000000
      10   -10.31163897     1.00000000
      11    -9.71987990     1.00000000
      12    -9.54752614     1.00000000
      13     1.30936202     1.00000000
      14     1.99528707     1.00000000
      15     2.77048483     1.00000000
      16     3.01838313     1.00000000
      17     3.09821806     1.00000000
      18     3.74071689     1.00000000
      19     4.40186602     1.00000000
      20     5.01252600     1.00000000
      21     5.15078804     1.00000000
      22     5.66886920     1.00000000
      23     5.67549873     1.00000000
      24     6.42258671     1.00000000
      25     8.55515022     0.00000000
      26     9.12295644     0.00000000
      27     9.21178840     0.00000000
      28     9.62112284     0.00000000
      29     9.77017200     0.00000000
      30    10.75018468     0.00000000
      31    11.60179262     0.00000000
      32    12.75821420     0.00000000
      33    13.10149280     0.00000000
      34    13.26128461     0.00000000
#  Point 5      Spin 2:     0.25000000     0.25000000     0.00000000       0.11111111
#   Band    Energy [eV]     Occupation
       1   -51.66925391     1.00000000
       2   -51.66107641     1.00000000
       3   -26.44945547     1.00000000
       4   -26.40515199     1.00000000
       5   -26.34292638     1.00000000
       6   -26.29603661     1.00000000
       7   -26.27205456     1.00000000
       8   -26.25513525     1.00000000
       9   -10.95887847     1.00000000
      10   -10.31163897     1.00000000
      11    -9.71987990     1.00000000
      12    -9.54752614     1.00000000
      13     1.30936202     1.00000000
      14     1.99528707     1.00000000
      15     2.77048483     1.00000000
      16     3.01838313     1.00000000
      17     3.09821806     1.00000000
      18     3.74071689     1.00000000
      19     4.40186602     1.00000000
      20     5.01252600     1.00000000
      21     5.15078804     1.00000000
      22     5.66886920     1.00000000
      23     5.67549873     1.00000000
      24     6.42258671     1.00000000
      25     8.55515022     0.00000000
      26     9.12295644     0.00000000
      27     9.21178840     0.00000000
      28     9.62112284     0.00000000
      29     9.77017200     0.00000000
      30    10.75018468     0.00000000
      31    11.60179262     0.00000000
      32    12.75821420     0.00000000
      33    13.10149280     0.00000000
      34    13.26128461     0.00000000
#  Point 6      Spin 1:     0.18750000     0.18750000     0.00000000       0.11111111
#   Band    Energy [eV]     Occupation
       1   -51.67032278     1.00000000
       2   -51.66003637     1.00000000
       3   -26.44746234     1.00000000
       4   -26.41201586     1.00000000
       5   -26.33510608     1.00000000
       6   -26.29729863     1.00000000
       7   -26.27447724     1.00000000
       8   -26.25276407     1.00000000
       9   -11.08412253     1.00000000
      10   -10.22429728     1.00000000
      11    -9.68178011     1.00000000
      12    -9.52650587     1.00000000
      13     1.28652255     1.00000000
      14     1.89548253     1.00000000
      15     2.47994805     1.00000000
      16     3.03069242     1.00000000
      17     3.09890581     1.00000000
      18     3.79971066     1.00000000
      19     4.34066067     1.00000000
      20     4.92602772     1.00000000
      21     5.44670587     1.00000000
      22     5.78736513     1.00000000
      23     5.91488090     1.00000000
      24     6.60320639     1.00000000
      25     8.56178782     0.00000000
      26     9.11868684     0.00000000
      27     9.18551264     0.00000000
      28     9.50299746     0.00000000
      29     9.54570953     0.00000000
      30    10.90078652     0.00000000
      31    11.32806824     0.00000000
      32    12.81022924     0.00000000
      33    13.10103358     0.00000000
      34    13.59529812     0.00000000
#  Point 6      Spin 2:     0.18750000     0.18750000     0.00000000       0.11111111
#   Band    Energy [eV]     Occupation
       1   -51.67032278     1.00000000
       2   -51.66003637     1.00000000
       3   -26.44746234     1.00000000
       4   -26.41201586     1.00000000
       5   -26.33510608     1.00000000
       6   -26.29729863     1.00000000
       7   -26.27447724     1.00000000
       8   -26.25276407     1.00000000
       9   -11.08412253     1.00000000
      10   -10.22429728     1.00000000
      11    -9.68178011     1.00000000
      12    -9.52650587     1.00000000
      13     1.28652255     1.00000000
      14     1.89548253     1.00000000
      15     2.47994805     1.00000000
      16     3.03069242     1.00000000
      17     3.09890581     1.00000000
      18     3.79971066     1.00000000
      19     4.34066067     1.00000000
      20     4.92602772     1.00000000
      21     5.44670587     1.00000000
      22     5.78736513     1.00000000
      23     5.91488090     1.00000000
      24     6.60320639     1.00000000
      25     8.56178782     0.00000000
      26     9.11868684     0.00000000
      27     9.18551264     0.00000000
      28     9.50299746     0.00000000
      29     9.54570953     0.00000000
      30    10.90078652     0.00000000
      31    11.32806824     0.00000000
      32    12.81022924     0.00000000
      33    13.10103358     0.00000000
      34    13.59529812     0.00000000
#  Point 7      Spin 1:     0.12500000     0.12500000     0.00000000       0.11111111
#   Band    Energy [eV]     Occupation
       1   -51.67127334     1.00000000
       2   -51.65915014     1.00000000
       3   -26.44577071     1.00000000
       4   -26.42854923     1.00000000
       5   -26.31726372     1.00000000
       6   -26.29835897     1.00000000
       7   -26.27662521     1.00000000
       8   -26.25064625     1.00000000
       9   -11.19257654     1.00000000
      10   -10.18541915     1.00000000
      11    -9.60017885     1.00000000
      12    -9.50821928     1.00000000
      13     1.23252941     1.00000000
      14     1.68748298     1.00000000
      15     2.25975378     1.00000000
      16     3.04115376     1.00000000
      17     3.07782987     1.00000000
      18     4.01132405     1.00000000
      19     4.29775891     1.00000000
      20     4.88506267     1.00000000
      21     5.82758150     1.00000000
      22     5.92110149     1.00000000
      23     6.12814862     1.00000000
      24     6.72761522     1.00000000
      25     8.55707436     0.00000000
      26     9.03946769     0.00000000
      27     9.11502361     0.00000000
      28     9.26470382     0.00000000
      29     9.36865852     0.00000000
      30    11.04370641     0.00000000
      31    11.09597859     0.00000000
      32    12.93059454     0.00000000
      33    13.10041780     0.00000000
      34    13.85164729     0.00000000
#  Point 7      Spin 2:     0.12500000     0.12500000     0.00000000       0.11111111
#   Band    Energy [eV]     Occupation
       1   -51.67127334     1.00000000
       2   -51.65915014     1.00000000
       3   -26.44577071     1.00000000
       4   -26.42854923     1.00000000
       5   -26.31726372     1.00000000
       6   -26.29835897     1.00000000
       7   -26.27662521     1.00000000
       8   -26.25064625     1.00000000
       9   -11.19257654     1.00000000
      10   -10.18541915     1.00000000
      11    -9.60017885     1.00000000
      12    -9.50821928     1.00000000
      13     1.23252941     1.00000000
      14     1.68748298     1.00000000
      15     2.25975378     1.00000000
      16     3.04115376     1.00000000
      17     3.07782987     1.00000000
      18     4.01132405     1.00000000
      19     4.29775891     1.00000000
      20     4.88506267     1.00000000
      21     5.82758150     1.00000000
      22     5.92110149     1.00000000
      23     6.12814862     1.00000000
      24     6.72761522     1.00000000
      25     8.55707436     0.00000000
      26     9.03946769     0.00000000
      27     9.11502361     0.00000000
      28     9.26470382     0.00000000
      29     9.36865852     0.00000000
      30    11.04370641     0.00000000
      31    11.09597859     0.00000000
      32    12.93059454     0.00000000
      33    13.10041780     0.00000000
      34    13.85164729     0.00000000
#  Point 8      Spin 1:     0.06250000     0.06250000     0.00000000       0.11111111
#   Band    Energy [eV]     Occupation
       1   -51.67191949     1.00000000
       2   -51.65857706     1.00000000
       3   -26.44463918     1.00000000
       4   -26.44137061     1.00000000
       5   -26.30320194     1.00000000
       6   -26.29906207     1.00000000
       7   -26.27808700     1.00000000
       8   -26.24919750     1.00000000
       9   -11.26571596     1.00000000
      10   -10.17479365     1.00000000
      11    -9.52318456     1.00000000
      12    -9.49579338     1.00000000
      13     1.14498831     1.00000000
      14     1.55758063     1.00000000
      15     2.12252493     1.00000000
      16     3.04815692     1.00000000
      17     3.05346558     1.00000000
      18     4.19663347     1.00000000
      19     4.27260617     1.00000000
      20     4.87063152     1.00000000
      21     6.03924023     1.00000000
      22     6.18476129     1.00000000
      23     6.28221262     1.00000000
      24     6.79419160     1.00000000
      25     8.52949595     0.00000000
      26     8.85583017     0.00000000
      27     9.09661089     0.00000000
      28     9.11254199     0.00000000
      29     9.19337470     0.00000000
      30    10.94344084     0.00000000
      31    11.14776285     0.00000000
      32    13.04322127     0.00000000
      33    13.09987354     0.00000000
      34    14.00530572     0.00000000
#  Point 8      Spin 2:     0.06250000     0.06250000     0.00000000       0.11111111
#   Band    Energy [eV]     Occupation
       1   -51.67191949     1.00000000
       2   -51.65857706     1.00000000
       3   -26.44463918     1.00000000
       4   -26.44137061     1.00000000
       5   -26.30320194     1.00000000
       6   -26.29906207     1.00000000
       7   -26.27808700     1.00000000
       8   -26.24919750     1.00000000
       9   -11.26571596     1.00000000
      10   -10.17479365     1.00000000
      11    -9.52318456     1.00000000
      12    -9.49579338     1.00000000
      13     1.14498831     1.00000000
      14     1.55758063     1.00000000
      15     2.12252493     1.00000000
      16     3.04815692     1.00000000
      17     3.05346558     1.00000000
      18     4.19663347     1.00000000
      19     4.27260617     1.00000000
      20     4.87063152     1.00000000
      21     6.03924023     1.00000000
      22     6.18476129     1.00000000
      23     6.28221262     1.00000000
      24     6.79419160     1.00000000
      25     8.52949595     0.00000000
      26     8.85583017     0.00000000
      27     9.09661089     0.00000000
      28     9.11254199     0.00000000
      29     9.19337470     0.00000000
      30    10.94344084     0.00000000
      31    11.14776285     0.00000000
      32    13.04322127     0.00000000
      33    13.09987354     0.00000000
      34    14.00530572     0.00000000
#  Point 9      Spin 1:     0.00000000     0.00000000     0.00000000       0.11111111
#   Band    Energy [eV]     Occupation
       1   -51.67214784     1.00000000
       2   -51.65838333     1.00000000
       3   -26.44597330     1.00000000
       4   -26.44424159     1.00000000
       5   -26.29930789     1.00000000
       6   -26.29805015     1.00000000
       7   -26.27860379     1.00000000
       8   -26.24868391     1.00000000
       9   -11.29147520     1.00000000
      10   -10.17323700     1.00000000
      11    -9.49256852     1.00000000
      12    -9.49139285     1.00000000
      13     1.09832960     1.00000000
      14     1.52311337     1.00000000
      15     2.07592272     1.00000000
      16     3.04313802     1.00000000
      17     3.05061856     1.00000000
      18     4.26434375     1.00000000
      19     4.26637642     1.00000000
      20     4.86753847     1.00000000
      21     6.08797822     1.00000000
      22     6.34046581     1.00000000
      23     6.34296021     1.00000000
      24     6.81338634     1.00000000
      25     8.49798628     0.00000000
      26     8.77834048     0.00000000
      27     9.03536830     0.00000000
      28     9.11166233     0.00000000
      29     9.12050109     0.00000000
      30    10.89048946     0.00000000
      31    11.18603877     0.00000000
      32    13.08792701     0.00000000
      33    13.09965470     0.00000000
      34    14.05301036     0.00000000
#  Point 9      Spin 2:     0.00000000     0.00000000     0.00000000       0.11111111
#   Band    Energy [eV]     Occupation
       1   -51.67214784     1.00000000
       2   -51.65838333     1.00000000
       3   -26.44597330     1.00000000
       4   -26.44424159     1.00000000
       5   -26.29930789     1.00000000
       6   -26.29805015     1.00000000
       7   -26.27860379     1.00000000
       8   -26.24868391     1.00000000
       9   -11.29147520     1.00000000
      10   -10.17323700     1.00000000
      11    -9.49256852     1.00000000
      12    -9.49139285     1.00000000
      13     1.09832960     1.00000000
      14     1.52311337     1.00000000
      15     2.07592272     1.00000000
      16     3.04313802     1.00000000
      17     3.05061856     1.00000000
      18     4.26434375     1.00000000
      19     4.26637642     1.00000000
      20     4.86753847     1.00000000
      21     6.08797822     1.00000000
      22     6.34046581     1.00000000
      23     6.34296021     1.00000000
      24     6.81338634     1.00000000
      25     8.49798628     0.00000000
      26     8.77834048     0.00000000
      27     9.03536830     0.00000000
      28     9.11166233     0.00000000
      29     9.12050109     0.00000000
      30    10.89048946     0.00000000
      31    11.18603877     0.00000000
      32    13.08792701     0.00000000
      33    13.09965470     0.00000000
      34    14.05301036     0.00000000
 KPOINTS| Time for k-point line                                            0.246

 ENERGY| Total FORCE_EVAL ( QS ) energy [a.u.]:             -180.908875318709676

 -------------------------------------------------------------------------------
 -                                                                             -
 -                                DBCSR STATISTICS                             -
 -                                                                             -
 -------------------------------------------------------------------------------
 COUNTER                                    TOTAL       BLAS       SMM       ACC
 flops inhomo. stacks                           0       0.0%      0.0%      0.0%
 flops total                         0.000000E+00       0.0%      0.0%      0.0%
 flops max/rank                      0.000000E+00       0.0%      0.0%      0.0%
 matmuls inhomo. stacks                         0       0.0%      0.0%      0.0%
 matmuls total                                  0       0.0%      0.0%      0.0%
 number of processed stacks                     0       0.0%      0.0%      0.0%
 average stack size                                     0.0       0.0       0.0
 marketing flops                     0.000000E+00
 -------------------------------------------------------------------------------
 -                                                                             -
 -                      DBCSR MESSAGE PASSING PERFORMANCE                      -
 -                                                                             -
 -------------------------------------------------------------------------------
 ROUTINE             CALLS      AVE VOLUME [Bytes]
 MP_Bcast                1                     12.
 MP_Allreduce        10677                      8.
 MP_Alltoall         20264                   5603.
 -------------------------------------------------------------------------------

 -------------------------------------------------------------------------------
 -                                                                             -
 -                                GRID STATISTICS                              -
 -                                                                             -
 -------------------------------------------------------------------------------
 LP    KERNEL             BACKEND                              COUNT     PERCENT
 4     collocate ortho    REF                                 172952      23.42%
 4     integrate ortho    REF                                 159648      21.61%
 5     collocate ortho    REF                                 151632      20.53%
 5     integrate ortho    REF                                 139968      18.95%
 6     collocate ortho    REF                                  59488       8.05%
 6     integrate ortho    REF                                  54912       7.43%
 0     collocate general  REF                                      6       0.00%
 -------------------------------------------------------------------------------

 MEMORY| Estimated peak process memory [MiB]                                 250

 -------------------------------------------------------------------------------
 -                                                                             -
 -                         MESSAGE PASSING PERFORMANCE                         -
 -                                                                             -
 -------------------------------------------------------------------------------

 ROUTINE             CALLS      AVE VOLUME [Bytes]
 MP_Group                9
 MP_Bcast             6359                  57797.
 MP_Allreduce         5960                     22.
 MP_Sync               105
 MP_Alltoall           531
 MP_ISendRecv         2761                   8163.
 MP_Wait              7333
 MP_ISend             6216                   1376.
 MP_IRecv             8620                   1058.
 MP_Recv              2220                  14976.
 -------------------------------------------------------------------------------


 -------------------------------------------------------------------------------
 -                                                                             -
 -                           R E F E R E N C E S                               -
 -                                                                             -
 -------------------------------------------------------------------------------
 
 CP2K version 8.2, the CP2K developers group (2021).
 CP2K is freely available from https://www.cp2k.org/ .

 Kuehne,Thomas D.; Iannuzzi,Marcella; Del Ben,Mauro;
 Rybkin,Vladimir V.; Seewald,Patrick; Stein,Frederick; Laino,Teodoro;
 Khaliullin,Rustam Z.; Schuett,Ole; Schiffmann,Florian; Golze,Dorothea;
 Wilhelm,Jan; Chulkov,Sergey; Bani-Hashemian,Mohammad Hossein;
 Weber,Valery; Borstnik,Urban; Taillefumier,Mathieu;
 Jakobovits,Alice Shoshana; Lazzaro,Alfio; Pabst,Hans; Mueller,Tiziano;
 Schade,Robert; Guidon,Manuel; Andermatt,Samuel; Holmberg,Nico;
 Schenter,Gregory K.; Hehn,Anna; Bussy,Augustin; Belleflamme,Fabian;
 Tabacchi,Gloria; Gloess,Andreas; Lass,Michael; Bethune,Iain;
 Mundy,Christopher J.; Plessl,Christian; Watkins,Matt;
 VandeVondele,Joost; Krack,Matthias; Hutter,Juerg. 
 The Journal of Chemical Physics, 152 (19), (2020). 
 CP2K: An electronic structure and molecular dynamics software package -
 Quickstep: Efficient and accurate electronic structure calculations.
 https://doi.org/10.1063/5.0007045

 Togo, Atsushi; Tanaka, Isao. arXiv, 1808.01590 (2018). 
 Spglib : a software library for crystal symmetry search.
 https://doi.org/xxx

 Schuett, Ole; Messmer, Peter; Hutter, Juerg; VandeVondele, Joost. 
 Electronic Structure Calculations on Graphics Processing Units, John
 Wiley & Sons, Ltd, 173-190 (2016). 
 GPU-Accelerated Sparse Matrix-Matrix Multiplication for
 Linear Scaling Density Functional Theory.
 https://doi.org/10.1002/9781118670712.ch8

 Heinecke, A; Henry, G; Hutchinson, M; Pabst, H. 
 Proceedings of Intl. Supercomputing Conference, 981-991 (2016). 
 LIBXSMM: Accelerating Small Matrix Multiplications
 by Runtime Code Generation.
 https://doi.org/10.1109/SC.2016.83

 Borstnik, U; VandeVondele, J; Weber, V; Hutter, J. 
 PARALLEL COMPUTING, 40 (5-6), 47-58 (2014). 
 Sparse matrix multiplication: The distributed block-compressed sparse
 row library.
 https://doi.org/10.1016/j.parco.2014.03.012

 Hutter, J; Iannuzzi, M; Schiffmann, F; VandeVondele, J. 
 WIREs Comput Mol Sci., 4 (1), 15-25 (2014). 
 CP2K: atomistic simulations of condensed matter systems.
 https://doi.org/10.1002/wcms.1159

 VandeVondele, J; Hutter, J. 
 JOURNAL OF CHEMICAL PHYSICS, 127 (11), 114105 (2007). 
 Gaussian basis sets for accurate calculations on molecular systems in
 gas and condensed phases.
 https://doi.org/10.1063/1.2770708

 Krack, M. 
 THEORETICAL CHEMISTRY ACCOUNTS, 114 (1-3), 145-152 (2005). 
 Pseudopotentials for H to Kr optimized for gradient-corrected
 exchange-correlation functionals.
 https://doi.org/10.1007/s00214-005-0655-y

 VandeVondele, J; Krack, M; Mohamed, F; Parrinello, M; Chassaing, T;
 Hutter, J. COMPUTER PHYSICS COMMUNICATIONS, 167 (2), 103-128 (2005). 
 QUICKSTEP: Fast and accurate density functional calculations using a
 mixed Gaussian and plane waves approach.
 https://doi.org/10.1016/j.cpc.2004.12.014

 Frigo, M; Johnson, SG. 
 PROCEEDINGS OF THE IEEE, 93 (2), 216-231 (2005). 
 The design and implementation of FFTW3.
 https://doi.org/10.1109/JPROC.2004.840301

 Hartwigsen, C; Goedecker, S; Hutter, J. 
 PHYSICAL REVIEW B, 58 (7), 3641-3662 (1998). 
 Relativistic separable dual-space Gaussian pseudopotentials from H to Rn.
 https://doi.org/10.1103/PhysRevB.58.3641

 Lippert, G; Hutter, J; Parrinello, M. 
 MOLECULAR PHYSICS, 92 (3), 477-487 (1997). 
 A hybrid Gaussian and plane wave density functional scheme.
 https://doi.org/10.1080/002689797170220

 Perdew, JP; Burke, K; Ernzerhof, M. 
 PHYSICAL REVIEW LETTERS, 77 (18), 3865-3868 (1996). 
 Generalized gradient approximation made simple.
 https://doi.org/10.1103/PhysRevLett.77.3865

 Goedecker, S; Teter, M; Hutter, J. 
 PHYSICAL REVIEW B, 54 (3), 1703-1710 (1996). 
 Separable dual-space Gaussian pseudopotentials.
 https://doi.org/10.1103/PhysRevB.54.1703


 -------------------------------------------------------------------------------
 -                                                                             -
 -                                T I M I N G                                  -
 -                                                                             -
 -------------------------------------------------------------------------------
 SUBROUTINE                       CALLS  ASD         SELF TIME        TOTAL TIME
                                MAXIMUM       AVERAGE  MAXIMUM  AVERAGE  MAXIMUM
 CP2K                                 1  1.0    0.005    0.011    9.957    9.957
 qs_energies                          1  2.0    0.002    0.006    9.845    9.847
 scf_env_do_scf                       1  3.0    0.000    0.000    8.112    8.481
 scf_env_do_scf_inner_loop           12  4.0    0.004    0.006    8.112    8.481
 qs_ks_update_qs_env                 12  5.0    0.000    0.000    2.909    3.739
 rebuild_ks_matrix                   12  6.0    0.000    0.000    2.814    3.644
 qs_ks_build_kohn_sham_matrix        12  7.0    0.008    0.010    2.814    3.644
 sum_up_and_integrate                12  8.0    0.000    0.000    2.625    3.433
 integrate_v_rspace                  24  9.0    0.006    0.018    2.625    3.433
 grid_integrate_task_list            24 10.0    1.661    3.358    1.661    3.358
 do_general_diag_kp                  15  5.4    0.004    0.004    2.734    3.189
 qs_rho_update_rho                   13  5.0    0.000    0.000    2.911    2.920
 calculate_rho_elec                  26  6.0    0.005    0.012    2.911    2.920
 grid_collocate_task_list            26  7.0    1.299    2.787    1.299    2.787
 qs_scf_new_mos_kp                   12  5.0    0.000    0.000    2.031    2.483
 rs_pw_transfer                     251  9.4    0.001    0.001    1.710    2.478
 mp_waitall_1                      7333  9.7    1.691    2.458    1.691    2.458
 rs_pw_transfer_RS2PW_100            27  8.9    0.004    0.004    1.684    2.451
 density_rs2pw                       26  7.0    0.001    0.001    1.605    2.320
 mp_alltoall_i22                   3456  8.1    1.359    1.942    1.359    1.942
 dbcsr_desymmetrize_deep           1964  6.8    0.030    0.034    1.376    1.932
 pw_transfer                        503  9.5    0.010    0.010    1.122    1.569
 fft_wrap_pw1pw2                    479 10.5    0.002    0.002    1.112    1.559
 fft3d_ps                           479 12.5    0.032    0.038    1.092    1.538
 fft_wrap_pw1pw2_100                279 11.6    0.005    0.008    1.033    1.480
 mp_alltoall_z22v                   479 14.5    1.005    1.442    1.005    1.442
 potential_pw2rs                     24 10.0    0.001    0.001    0.958    1.403
 yz_to_x                            175 13.2    0.003    0.004    0.946    1.395
 write_kpoints_restart               12  5.0    0.035    0.406    0.351    0.720
 cp_cfm_geeig                        58  5.2    0.001    0.001    0.666    0.674
 copy_dbcsr_to_fm                  1204  6.2    0.012    0.013    0.581    0.622
 cp_cfm_heevd                        58  6.2    0.539    0.553    0.539    0.553
 mp_sum_d                         11198  8.7    0.475    0.531    0.475    0.531
 dbcsr_complete_redistribute       1492  7.5    0.056    0.059    0.463    0.510
 scf_post_calculation_gpw             1  3.0    0.000    0.000    0.369    0.403
 write_available_results              1  4.0    0.000    0.000    0.369    0.403
 write_mo_dependent_results           1  5.0    0.000    0.000    0.369    0.403
 rskp_transform                     380  6.3    0.123    0.381    0.123    0.381
 init_scf_run                         1  3.0    0.000    0.001    0.301    0.306
 scf_env_initial_rho_setup            1  4.0    0.000    0.000    0.301    0.306
 qs_energies_init_hamiltonians        1  3.0    0.000    0.000    0.297    0.297
 kpoint_density_transform            12  7.0    0.004    0.004    0.275    0.283
 build_core_hamiltonian_matrix        1  4.0    0.001    0.001    0.095    0.259
 qs_env_update_s_mstruct              1  4.0    0.000    0.000    0.183    0.231
 calculate_rho_core                   1  5.0    0.000    0.000    0.167    0.219
 -------------------------------------------------------------------------------

 The number of warnings for this run is : 2
 
 -------------------------------------------------------------------------------
  **** **** ******  **  PROGRAM ENDED AT                 2021-06-03 14:26:14.491
 ***** ** ***  *** **   PROGRAM RAN ON                                   mpcl003
 **    ****   ******    PROGRAM RAN BY                                  pubo1141
 ***** **    ** ** **   PROGRAM PROCESS ID                                  9102
  **** **  *******  **  PROGRAM STOPPED IN /user/pubo1141/simulations/aiida_test
                                           s/cp2k_8.2/bands_spin_pol_low
