       4
 i =        1, E =       -65.9869762715
 Cs         2.3377474746        2.3376905500        2.3376336254
 Cs         7.0132424238        7.0130716500        7.0129008762
 Cs         4.6754949492        4.6753811000        4.6752672508
 Sb         0.0000000000        0.0000000000        0.0000000000
       4
 i =        2, E =       -65.9870186330
 Cs         2.3439718361        2.3376905311        2.3314089230
 Cs         7.0319155084        7.0130715934        6.9942267690
 Cs         4.6879436723        4.6753810623        4.6628178460
 Sb         0.0000000000        0.0000000000        0.0000000000
       4
 i =        3, E =       -65.9870170914
 Cs         2.3441999038        2.3376905108        2.3311807927
 Cs         7.0325997115        7.0130715324        6.9935423780
 Cs         4.6883998077        4.6753810216        4.6623615853
 Sb         0.0000000000        0.0000000000        0.0000000000
       4
 i =        4, E =       -65.9870173103
 Cs         2.3441999038        2.3376905108        2.3311807927
 Cs         7.0325997115        7.0130715324        6.9935423780
 Cs         4.6883998077        4.6753810216        4.6623615853
 Sb         0.0000000000        0.0000000000        0.0000000000
