64   
1    

1    
  0.0100000000000000   0.0000000000000000   0.0000000000000000
  -0.0020793472    0.0000000000   -0.0000000000
   0.0000020328    0.0000000000   -0.0000000000
   0.0000089628    0.0000000000   -0.0000000000
  -0.0000027572    0.0000000000   -0.0000000000
   0.0000089628    0.0000000000   -0.0000000000
  -0.0000027572    0.0000000000   -0.0000000000
  -0.0000765972    0.0000000000   -0.0000000000
   0.0000033628    0.0000000000   -0.0000000000
  -0.0000821172    0.0000169600    0.0000169600
  -0.0000000572    0.0000011900    0.0000011900
  -0.0000818172    0.0000168000   -0.0000168000
  -0.0000000072    0.0000012200   -0.0000012200
  -0.0000818172   -0.0000168000    0.0000168000
  -0.0000000072   -0.0000012200    0.0000012200
  -0.0000821172   -0.0000169600   -0.0000169600
  -0.0000000572   -0.0000011900   -0.0000011900
   0.0000293828   -0.0000164800    0.0000287800
   0.0000297128   -0.0000167000   -0.0000290600
   0.0000054728   -0.0000012100   -0.0000125200
   0.0000054828   -0.0000012100    0.0000124700
   0.0000293828    0.0000164800   -0.0000287800
   0.0000297128    0.0000167000    0.0000290600
   0.0000054728    0.0000012100    0.0000125200
   0.0000054828    0.0000012100   -0.0000124700
   0.0000293828    0.0000287800   -0.0000164800
   0.0000297128   -0.0000290600   -0.0000167000
   0.0000293828   -0.0000287800    0.0000164800
   0.0000297128    0.0000290600    0.0000167000
   0.0000054728   -0.0000125200   -0.0000012100
   0.0000054828    0.0000124700   -0.0000012100
   0.0000054728    0.0000125200    0.0000012100
   0.0000054828   -0.0000124700    0.0000012100
  -0.0000030972    0.0000048600    0.0000048600
   0.0000427528    0.0000027000    0.0000027000
   0.0000031528    0.0000027300    0.0000018400
  -0.0000083172    0.0000087700    0.0000053600
   0.0000031528    0.0000018400    0.0000027300
  -0.0000083172    0.0000053600    0.0000087700
  -0.0000013672    0.0000053200    0.0000053200
   0.0005211628    0.0002873500    0.0002873500
  -0.0000013672   -0.0000053200   -0.0000053200
   0.0005211628   -0.0002873500   -0.0002873500
   0.0000031528   -0.0000018400   -0.0000027300
  -0.0000083172   -0.0000053600   -0.0000087700
   0.0000031528   -0.0000027300   -0.0000018400
  -0.0000083172   -0.0000087700   -0.0000053600
  -0.0000030972   -0.0000048600   -0.0000048600
   0.0000427528   -0.0000027000   -0.0000027000
  -0.0000082572   -0.0000053000    0.0000088500
   0.0000032528   -0.0000019200    0.0000028600
   0.0005157328   -0.0002789500    0.0002789500
  -0.0000013572   -0.0000053100    0.0000053100
   0.0000425828   -0.0000026900    0.0000026900
  -0.0000031072   -0.0000048400    0.0000048400
  -0.0000082572   -0.0000088500    0.0000053000
   0.0000032528   -0.0000028600    0.0000019200
  -0.0000082572    0.0000088500   -0.0000053000
   0.0000032528    0.0000028600   -0.0000019200
   0.0000425828    0.0000026900   -0.0000026900
  -0.0000031072    0.0000048400   -0.0000048400
   0.0005157328    0.0002789500   -0.0002789500
  -0.0000013572    0.0000053100   -0.0000053100
  -0.0000082572    0.0000053000   -0.0000088500
   0.0000032528    0.0000019200   -0.0000028600
