#     Step Nr.          Time[fs]        Kin.[a.u.]          Temp[K]            Pot.[a.u.]        Cons Qty[a.u.]        UsedTime[s]
         0            0.000000         0.273612846       300.000000000     -1103.356751380     -1102.809525688         0.000000000
         1            0.500000         0.275296282       301.845786660     -1103.358390989     -1102.809495605        28.618735390
         2            1.000000         0.278348230       305.192063210     -1103.361440155     -1102.809507732         5.005072100
         3            1.500000         0.282648673       309.907239925     -1103.365772331     -1102.809554606         4.413687929
         4            2.000000         0.287465147       315.188213770     -1103.370647586     -1102.809627570         5.073403856
         5            2.500000         0.291682444       319.812226123     -1103.374912846     -1102.809687692         5.074346985
