 DBCSR| CPU Multiplication driver                                           XSMM (U)
 DBCSR| Multrec recursion limit                                              512 (U)
 DBCSR| Multiplication stack size                                           1000 (D)
 DBCSR| Maximum elements for images                                    UNLIMITED (U)
 DBCSR| Multiplicative factor virtual images                                   1 (U)
 DBCSR| Use multiplication densification                                       T (D)
 DBCSR| Multiplication size stacks                                             3 (U)
 DBCSR| Use memory pool for CPU allocation                                     F (U)
 DBCSR| Number of 3D layers                                               SINGLE (U)
 DBCSR| Use MPI memory allocation                                              F (U)
 DBCSR| Use RMA algorithm                                                      F (U)
 DBCSR| Use Communication thread                                               T (U)
 DBCSR| Communication thread load                                             87 (D)
 DBCSR| MPI: My process id                                                     0
 DBCSR| MPI: Number of processes                                              96
 DBCSR| OMP: Current number of threads                                         1
 DBCSR| OMP: Max number of threads                                             1
 DBCSR| Split modifier for TAS multiplication algorithm                  1.0E+00 (U)


  **** **** ******  **  PROGRAM STARTED AT               2024-07-05 02:41:04.673
 ***** ** ***  *** **   PROGRAM STARTED ON                                 c0302
 **    ****   ******    PROGRAM STARTED BY                              nichdsas
 ***** **    ** ** **   PROGRAM PROCESS ID                                213175
  **** **  *******  **  PROGRAM STARTED IN /scratch-grete/usr/nichdsas/test_pars
                                           er/cp2k-2024.1/cell_opt_walltime_low

 CP2K| version string:                                       CP2K version 2024.1
 CP2K| source code revision number:                                             
 CP2K| cp2kflags: omp libint fftw3 libxc elpa parallel scalapack xsmm spglib sir
 CP2K|            ius libvori libbqb
 CP2K| is freely available from                            https://www.cp2k.org/
 CP2K| Program compiled at                                   2024-05-28 17:35:28
 CP2K| Program compiled on                                                      
 CP2K| Program compiled for                                               x86_64
 CP2K| Data directory path    /sw/rev/24.05/sapphirerapids_opa_rocky8/linux-rock
 CP2K| Input file name                                                 aiida.inp

 GLOBAL| Force Environment number                                              1
 GLOBAL| Basis set file name                                        BASIS_MOLOPT
 GLOBAL| Potential file name                                      GTH_POTENTIALS
 GLOBAL| MM Potential file name                                     MM_POTENTIAL
 GLOBAL| Coordinate file name                                      __STD_INPUT__
 GLOBAL| Method name                                                        CP2K
 GLOBAL| Project name                                                      aiida
 GLOBAL| Run type                                                       CELL_OPT
 GLOBAL| FFT library                                                       FFTW3
 GLOBAL| Diagonalization library                                            ELPA
 GLOBAL| DGEMM library                                                      BLAS
 GLOBAL| Minimum number of eigenvectors for ELPA usage                        16
 GLOBAL| Orthonormality check for eigenvectors                          DISABLED
 GLOBAL| Matrix multiplication library                                 ScaLAPACK
 GLOBAL| All-to-all communication in single precision                          F
 GLOBAL| FFTs using library dependent lengths                                  F
 GLOBAL| Grid backend                                                       AUTO
 GLOBAL| Global print level                                                  LOW
 GLOBAL| MPI I/O enabled                                                       T
 GLOBAL| Total number of message passing processes                            96
 GLOBAL| Number of threads for this process                                    1
 GLOBAL| This output is from process                                           0
 GLOBAL| Stack size for threads created by OpenMP (OMP_STACKSIZE)        default
 GLOBAL| CPU model name                           Intel(R) Xeon(R) Platinum 8468
 GLOBAL| CPUID                                                              1003

 MEMORY| system memory details [Kb]
 MEMORY|                        rank 0           min           max       average
 MEMORY| MemTotal            527678176     527678176     527678176     527678176
 MEMORY| MemFree             513652876     513652876     513652876     513652876
 MEMORY| Buffers                  7740          7740          7740          7740
 MEMORY| Cached                1199576       1199576       1199576       1199576
 MEMORY| Slab                  1530084       1530084       1530084       1530084
 MEMORY| SReclaimable           203276        203276        203276        203276
 MEMORY| MemLikelyFree       515063468     515063468     515063468     515063468


 GENERATE|  Preliminary Number of Bonds generated:                             0
 GENERATE|  Achieved consistency in connectivity generation.

 *******************************************************************************
 *******************************************************************************
 **                                                                           **
 **     #####                         ##              ##                      **
 **    ##   ##            ##          ##              ##                      **
 **   ##     ##                       ##            ######                    **
 **   ##     ##  ##   ##  ##   #####  ##  ##   ####   ##    #####    #####    **
 **   ##     ##  ##   ##  ##  ##      ## ##   ##      ##   ##   ##  ##   ##   **
 **   ##  ## ##  ##   ##  ##  ##      ####     ###    ##   ######   ######    **
 **    ##  ###   ##   ##  ##  ##      ## ##      ##   ##   ##       ##        **
 **     #######   #####   ##   #####  ##  ##  ####    ##    #####   ##        **
 **           ##                                                    ##        **
 **                                                                           **
 **                                                ... make the atoms dance   **
 **                                                                           **
 **            Copyright (C) by CP2K developers group (2000-2024)             **
 **                      J. Chem. Phys. 152, 194103 (2020)                    **
 **                                                                           **
 *******************************************************************************


 TOTAL NUMBERS AND MAXIMUM NUMBERS

  Total number of            - Atomic kinds:                                   2
                             - Atoms:                                          4
                             - Shell sets:                                     4
                             - Shells:                                        23
                             - Primitive Cartesian functions:                 23
                             - Cartesian basis functions:                     59
                             - Spherical basis functions:                     55

  Maximum angular momentum of- Orbital basis functions:                        2
                             - Local part of the GTH pseudopotential:          2
                             - Non-local part of the GTH pseudopotential:      4


 SCF PARAMETERS         Density guess:                                   RESTART
                        --------------------------------------------------------
                        max_scf:                                             150
                        max_scf_history:                                       0
                        max_diis:                                              4
                        --------------------------------------------------------
                        eps_scf:                                        1.00E-06
                        eps_scf_history:                                0.00E+00
                        eps_diis:                                       1.00E-01
                        eps_eigval:                                     1.00E-05
                        --------------------------------------------------------
                        level_shift [a.u.]:                             0.000000
                        --------------------------------------------------------
                        Mixing method:                            BROYDEN_MIXING
                                                charge density mixing in g-space
                        --------------------------------------------------------
                        No outer SCF

 CELL_OPT| Pressure tolerance [bar]:                                       100.0
 CELL_OPT| Keep angles between the cell vectors:                              NO
 CELL_OPT| Keep cell symmetry:                                                NO
 CELL_OPT| Constraint:                                                      NONE

 BFGS| Use rational function optimization for step estimation:                NO
 BFGS| Use model Hessian for initial guess:                                   NO
 BFGS| Restart Hessian:                                                       NO
 BFGS| Trust radius:                                                       0.472

 *******************************************************************************
 ***                     STARTING   CELL   OPTIMIZATION                      ***
 ***                                   BFGS                                  ***
 *******************************************************************************

 CELL| Volume [angstrom^3]:                                           204.400073
 CELL| Vector a [angstrom]:       0.000     4.675     4.675   |a| =     6.611987
 CELL| Vector b [angstrom]:       4.675     0.000     4.675   |b| =     6.611987
 CELL| Vector c [angstrom]:       4.675     4.675     0.000   |c| =     6.611987
 CELL| Angle (b,c), alpha [degree]:                                    60.000000
 CELL| Angle (a,c), beta  [degree]:                                    60.000000
 CELL| Angle (a,b), gamma [degree]:                                    60.000000
 CELL| Numerically orthorhombic:                                              NO
 CELL| Periodicity                                                           XYZ

 Number of electrons:                                                         32
 Number of occupied orbitals:                                                 16
 Number of molecular orbitals:                                                16

 Number of orbital functions:                                                 55
 Number of independent orbital functions:                                     55

 Extrapolation method: initial_guess

 *** WARNING in qs_initial_guess.F:306 :: User requested to restart the    ***
 *** wavefunction from the file named: aiida-RESTART.kp. This file does    ***
 *** not exist. Please check the existence of the file or change properly  ***
 *** the value of the keyword WFN_RESTART_FILE_NAME. Calculation continues ***
 *** using ATOMIC GUESS.                                                   ***



 SCF WAVEFUNCTION OPTIMIZATION

  Step     Update method      Time    Convergence         Total energy    Change
  ------------------------------------------------------------------------------
     1 NoMix/Diag. 0.30E+00    0.4     2.07268548       -66.3624587504 -6.64E+01
     2 Broy./Diag. 0.30E+00    0.6     0.21106605       -66.1660060357  1.96E-01
     3 Broy./Diag. 0.30E+00    0.6     0.34310493       -66.1093010409  5.67E-02
     4 Broy./Diag. 0.30E+00    0.6     0.12156843       -66.0392528272  7.00E-02
     5 Broy./Diag. 0.30E+00    0.6     0.07954544       -65.9762792816  6.30E-02
     6 Broy./Diag. 0.30E+00    0.6     0.00714638       -65.9789466420 -2.67E-03
     7 Broy./Diag. 0.30E+00    0.6     0.00589888       -65.9856270751 -6.68E-03
     8 Broy./Diag. 0.30E+00    0.6     0.00035445       -65.9868582016 -1.23E-03
     9 Broy./Diag. 0.30E+00    0.6     0.00016173       -65.9865852711  2.73E-04
    10 Broy./Diag. 0.30E+00    0.6     0.00005670       -65.9863871695  1.98E-04
    11 Broy./Diag. 0.30E+00    0.6     0.00001124       -65.9863397180  4.75E-05
    12 Broy./Diag. 0.30E+00    0.6     0.00000362       -65.9863396673  5.07E-08
    13 Broy./Diag. 0.30E+00    0.6     0.00000043       -65.9863430144 -3.35E-06

  *** SCF run converged in    13 steps ***


  Electronic density on regular grids:        -31.9999999983        0.0000000017
  Core density on regular grids:               31.9999994903       -0.0000005097
  Total charge density on r-space grids:       -0.0000005079
  Total charge density g-space grids:          -0.0000005079

  Overlap energy of the core charge distribution:               0.00000000000000
  Self energy of the core charge distribution:               -138.89582544120611
  Core Hamiltonian energy:                                     27.23131268153830
  Hartree energy:                                              56.69779040792201
  Exchange-correlation energy:                                -11.01962066269825

  Total energy:                                               -65.98634301444406

 ENERGY| Total FORCE_EVAL ( QS ) energy [a.u.]:              -65.986343206615913

 --------  Informations at step =     0 ------------
  Optimization Method        =                 BFGS
  Total Energy               =       -65.9863432066
  Internal Pressure [bar]    =      1653.9308230315
  Used time                  =                9.158
 ---------------------------------------------------

 --------------------------
 OPTIMIZATION STEP:      1
 --------------------------

 CELL| Volume [angstrom^3]:                                           204.469220
 CELL| Vector a [angstrom]:      -0.000     4.675     4.675   |a| =     6.611987
 CELL| Vector b [angstrom]:       4.676    -0.001     4.675   |b| =     6.612087
 CELL| Vector c [angstrom]:       4.676     4.676    -0.001   |c| =     6.612560
 CELL| Angle (b,c), alpha [degree]:                                    60.014291
 CELL| Angle (a,c), beta  [degree]:                                    60.007322
 CELL| Angle (a,b), gamma [degree]:                                    60.009691
 CELL| Numerically orthorhombic:                                              NO
 CELL| Periodicity                                                           XYZ

 Number of electrons:                                                         32
 Number of occupied orbitals:                                                 16
 Number of molecular orbitals:                                                16

 Number of orbital functions:                                                 55
 Number of independent orbital functions:                                     55

 Extrapolation method: initial_guess


 SCF WAVEFUNCTION OPTIMIZATION

  Step     Update method      Time    Convergence         Total energy    Change
  ------------------------------------------------------------------------------
     1 Broy./Diag. 0.30E+00    0.3     0.00364245       -65.9861119676 -6.60E+01
     2 Broy./Diag. 0.30E+00    0.6     0.00034389       -65.9868613450 -7.49E-04
     3 Broy./Diag. 0.30E+00    0.6     0.00031861       -65.9865411784  3.20E-04
     4 Broy./Diag. 0.30E+00    0.6     0.00007768       -65.9863834212  1.58E-04
     5 Broy./Diag. 0.30E+00    0.6     0.00001495       -65.9863813619  2.06E-06
     6 Broy./Diag. 0.30E+00    0.6     0.00001037       -65.9864060178 -2.47E-05
     7 Broy./Diag. 0.30E+00    0.6     0.00000297       -65.9864199018 -1.39E-05
     8 Broy./Diag. 0.30E+00    0.6     0.00000026       -65.9864220449 -2.14E-06

  *** SCF run converged in     8 steps ***


  Electronic density on regular grids:        -32.0000002468       -0.0000002468
  Core density on regular grids:               31.9999994919       -0.0000005081
  Total charge density on r-space grids:       -0.0000007549
  Total charge density g-space grids:          -0.0000007549

  Overlap energy of the core charge distribution:               0.00000000000000
  Self energy of the core charge distribution:               -138.89582544120611
  Core Hamiltonian energy:                                     27.23064505419294
  Hartree energy:                                              56.69810551735792
  Exchange-correlation energy:                                -11.01934717526668

  Total energy:                                               -65.98642204492194

 ENERGY| Total FORCE_EVAL ( QS ) energy [a.u.]:              -65.986418945817150

 --------  Informations at step =     1 ------------
  Optimization Method        =                 BFGS
  Total Energy               =       -65.9864189458
  Internal Pressure [bar]    =      1598.8211074388
  Real energy change         =        -0.0000757392
  Predicted change in energy =        -0.0000381342
  Scaling factor             =         0.0000000000
  Step size                  =         0.0065101175
  Trust radius               =         0.4724315332
  Decrease in energy         =                  YES
  Used time                  =                6.279

  Convergence check :
  Max. step size             =         0.0065101175
  Conv. limit for step size  =         0.0030000000
  Convergence in step size   =                   NO
  RMS step size              =         0.0020584306
  Conv. limit for RMS step   =         0.0015000000
  Convergence in RMS step    =                   NO
  Max. gradient              =         0.0063769226
  Conv. limit for gradients  =         0.0000190000
  Conv. for gradients        =                   NO
  RMS gradient               =         0.0020198438
  Conv. limit for RMS grad.  =         0.0003000000
  Conv. for gradients        =                   NO
  Pressure Deviation [bar]   =      1498.8211074388
  Pressure Tolerance [bar]   =       100.0000000000
  Conv. for  PRESSURE        =                   NO
 ---------------------------------------------------
 Estimated peak process memory after this step [MiB]                         351

 --------------------------
 OPTIMIZATION STEP:      2
 --------------------------

 CELL| Volume [angstrom^3]:                                           208.076853
 CELL| Vector a [angstrom]:      -0.021     4.675     4.675   |a| =     6.612019
 CELL| Vector b [angstrom]:       4.683    -0.049     4.675   |b| =     6.617421
 CELL| Vector c [angstrom]:       4.683     4.711    -0.049   |c| =     6.642405
 CELL| Angle (b,c), alpha [degree]:                                    60.757625
 CELL| Angle (a,c), beta  [degree]:                                    60.388521
 CELL| Angle (a,b), gamma [degree]:                                    60.515173
 CELL| Numerically orthorhombic:                                              NO
 CELL| Periodicity                                                           XYZ

 Number of electrons:                                                         32
 Number of occupied orbitals:                                                 16
 Number of molecular orbitals:                                                16

 Number of orbital functions:                                                 55
 Number of independent orbital functions:                                     55

 Extrapolation method: initial_guess


 SCF WAVEFUNCTION OPTIMIZATION

  Step     Update method      Time    Convergence         Total energy    Change
  ------------------------------------------------------------------------------
     1 Broy./Diag. 0.30E+00    0.3     0.45438353       -65.9774723802 -6.60E+01
     2 Broy./Diag. 0.30E+00    0.6     0.01585062       -66.0148035309 -3.73E-02
     3 Broy./Diag. 0.30E+00    0.6     0.01472724       -65.9955656676  1.92E-02
     4 Broy./Diag. 0.30E+00    0.6     0.00358136       -65.9863140089  9.25E-03
     5 Broy./Diag. 0.30E+00    0.6     0.00065035       -65.9863595157 -4.55E-05
     6 Broy./Diag. 0.30E+00    0.6     0.00052910       -65.9877848262 -1.43E-03
     7 Broy./Diag. 0.30E+00    0.6     0.00015520       -65.9885305698 -7.46E-04
     8 Broy./Diag. 0.30E+00    0.6     0.00001853       -65.9886301870 -9.96E-05
     9 Broy./Diag. 0.30E+00    0.6     0.00003691       -65.9884829593  1.47E-04
    10 Broy./Diag. 0.30E+00    0.6     0.00000104       -65.9884387588  4.42E-05
    11 Broy./Diag. 0.30E+00    0.6     0.00000063       -65.9884379980  7.61E-07

  *** SCF run converged in    11 steps ***


  Electronic density on regular grids:        -32.0000003409       -0.0000003409
  Core density on regular grids:               31.9999994919       -0.0000005081
  Total charge density on r-space grids:       -0.0000008490
  Total charge density g-space grids:          -0.0000008490

  Overlap energy of the core charge distribution:               0.00000000000000
  Self energy of the core charge distribution:               -138.89582544120611
  Core Hamiltonian energy:                                     27.20211026342489
  Hartree energy:                                              56.71226313259909
  Exchange-correlation energy:                                -11.00698595284744

  Total energy:                                               -65.98843799802958

 ENERGY| Total FORCE_EVAL ( QS ) energy [a.u.]:              -65.988440568022668

 --------  Informations at step =     2 ------------
  Optimization Method        =                 BFGS
  Total Energy               =       -65.9884405680
  Internal Pressure [bar]    =      -692.3439094090
  Real energy change         =        -0.0020216222
  Predicted change in energy =        -0.0019600857
  Scaling factor             =         0.0000000000
  Step size                  =         0.3404153996
  Trust radius               =         0.4724315332
  Decrease in energy         =                  YES
  Used time                  =                7.856

  Convergence check :
  Max. step size             =         0.3404153996
  Conv. limit for step size  =         0.0030000000
  Convergence in step size   =                   NO
  RMS step size              =         0.1078238358
  Conv. limit for RMS step   =         0.0015000000
  Convergence in RMS step    =                   NO
  Max. gradient              =         0.0013576623
  Conv. limit for gradients  =         0.0000190000
  Conv. for gradients        =                   NO
  RMS gradient               =         0.0004325264
  Conv. limit for RMS grad.  =         0.0003000000
  Conv. for gradients        =                   NO
  Pressure Deviation [bar]   =      -792.3439094090
  Pressure Tolerance [bar]   =       100.0000000000
  Conv. for  PRESSURE        =                   NO
 ---------------------------------------------------
 Estimated peak process memory after this step [MiB]                         353

 --------------------------
 OPTIMIZATION STEP:      3
 --------------------------

 CELL| Volume [angstrom^3]:                                           208.196152
 CELL| Vector a [angstrom]:      -0.021     4.675     4.675   |a| =     6.612022
 CELL| Vector b [angstrom]:       4.683    -0.050     4.675   |b| =     6.617571
 CELL| Vector c [angstrom]:       4.683     4.712    -0.050   |c| =     6.643193
 CELL| Angle (b,c), alpha [degree]:                                    60.783828
 CELL| Angle (a,c), beta  [degree]:                                    60.402509
 CELL| Angle (a,b), gamma [degree]:                                    60.533429
 CELL| Numerically orthorhombic:                                              NO
 CELL| Periodicity                                                           XYZ

 Number of electrons:                                                         32
 Number of occupied orbitals:                                                 16
 Number of molecular orbitals:                                                16

 Number of orbital functions:                                                 55
 Number of independent orbital functions:                                     55

 Extrapolation method: initial_guess


 SCF WAVEFUNCTION OPTIMIZATION

  Step     Update method      Time    Convergence         Total energy    Change
  ------------------------------------------------------------------------------
     1 Broy./Diag. 0.30E+00    0.3     0.00670940       -65.9880997245 -6.60E+01
     2 Broy./Diag. 0.30E+00    0.6     0.00074824       -65.9891162263 -1.02E-03
     3 Broy./Diag. 0.30E+00    0.6     0.00061545       -65.9886526134  4.64E-04
     4 Broy./Diag. 0.30E+00    0.6     0.00011217       -65.9884016300  2.51E-04
     5 Broy./Diag. 0.30E+00    0.6     0.00001532       -65.9883907399  1.09E-05
     6 Broy./Diag. 0.30E+00    0.6     0.00001496       -65.9884274513 -3.67E-05
     7 Broy./Diag. 0.30E+00    0.6     0.00000388       -65.9884485065 -2.11E-05
     8 Broy./Diag. 0.30E+00    0.6     0.00000037       -65.9884519315 -3.42E-06

  *** SCF run converged in     8 steps ***


  Electronic density on regular grids:        -32.0000006929       -0.0000006929
  Core density on regular grids:               31.9999994918       -0.0000005082
  Total charge density on r-space grids:       -0.0000012011
  Total charge density g-space grids:          -0.0000012011

  Overlap energy of the core charge distribution:               0.00000000000000
  Self energy of the core charge distribution:               -138.89582544120611
  Core Hamiltonian energy:                                     27.20132220120246
  Hartree energy:                                              56.71267834951966
  Exchange-correlation energy:                                -11.00662704100217

  Total energy:                                               -65.98845193148617

 ENERGY| Total FORCE_EVAL ( QS ) energy [a.u.]:              -65.988447263978827

 --------  Informations at step =     3 ------------
  Optimization Method        =                 BFGS
  Total Energy               =       -65.9884472640
  Internal Pressure [bar]    =      -756.4866435917
  Real energy change         =        -0.0000066960
  Predicted change in energy =        -0.0000041548
  Scaling factor             =         0.0000000000
  Step size                  =         0.0119151274
  Trust radius               =         0.4724315332
  Decrease in energy         =                  YES
  Used time                  =                6.171

  Convergence check :
  Max. step size             =         0.0119151274
  Conv. limit for step size  =         0.0030000000
  Convergence in step size   =                   NO
  RMS step size              =         0.0039591267
  Conv. limit for RMS step   =         0.0015000000
  Convergence in RMS step    =                   NO
  Max. gradient              =         0.0013798024
  Conv. limit for gradients  =         0.0000190000
  Conv. for gradients        =                   NO
  RMS gradient               =         0.0004386182
  Conv. limit for RMS grad.  =         0.0003000000
  Conv. for gradients        =                   NO
  Pressure Deviation [bar]   =      -856.4866435917
  Pressure Tolerance [bar]   =       100.0000000000
  Conv. for  PRESSURE        =                   NO
 ---------------------------------------------------
 Estimated peak process memory after this step [MiB]                         354

 --------------------------
 OPTIMIZATION STEP:      4
 --------------------------

 CELL| Volume [angstrom^3]:                                           208.267665
 CELL| Vector a [angstrom]:      -0.022     4.675     4.675   |a| =     6.612024
 CELL| Vector b [angstrom]:       4.683    -0.052     4.675   |b| =     6.617599
 CELL| Vector c [angstrom]:       4.683     4.712    -0.051   |c| =     6.643289
 CELL| Angle (b,c), alpha [degree]:                                    60.802783
 CELL| Angle (a,c), beta  [degree]:                                    60.413596
 CELL| Angle (a,b), gamma [degree]:                                    60.547323
 CELL| Numerically orthorhombic:                                              NO
 CELL| Periodicity                                                           XYZ

 Number of electrons:                                                         32
 Number of occupied orbitals:                                                 16
 Number of molecular orbitals:                                                16

 Number of orbital functions:                                                 55
 Number of independent orbital functions:                                     55

 Extrapolation method: initial_guess


 SCF WAVEFUNCTION OPTIMIZATION

  Step     Update method      Time    Convergence         Total energy    Change
  ------------------------------------------------------------------------------
     1 Broy./Diag. 0.30E+00    0.3     0.14024869       -65.9882066211 -6.60E+01
     2 Broy./Diag. 0.30E+00    0.6     0.00047908       -65.9888951864 -6.89E-04
     3 Broy./Diag. 0.30E+00    0.6     0.00040921       -65.9885830940  3.12E-04
     4 Broy./Diag. 0.30E+00    0.6     0.00008597       -65.9884245351  1.59E-04
     5 Broy./Diag. 0.30E+00    0.6     0.00001114       -65.9884201562  4.38E-06
     6 Broy./Diag. 0.30E+00    0.6     0.00001042       -65.9884415820 -2.14E-05
     7 Broy./Diag. 0.30E+00    0.6     0.00000274       -65.9884549651 -1.34E-05
     8 Broy./Diag. 0.30E+00    0.6     0.00000025       -65.9884574728 -2.51E-06

  *** SCF run converged in     8 steps ***


  Electronic density on regular grids:        -32.0000004648       -0.0000004648
  Core density on regular grids:               31.9999994926       -0.0000005074
  Total charge density on r-space grids:       -0.0000009722
  Total charge density g-space grids:          -0.0000009722

  Overlap energy of the core charge distribution:               0.00000000000000
  Self energy of the core charge distribution:               -138.89582544120611
  Core Hamiltonian energy:                                     27.20077650687081
  Hartree energy:                                              56.71297621870087
  Exchange-correlation energy:                                -11.00638475715453

  Total energy:                                               -65.98845747278895

 ENERGY| Total FORCE_EVAL ( QS ) energy [a.u.]:              -65.988454498710922

 --------  Informations at step =     4 ------------
  Optimization Method        =                 BFGS
  Total Energy               =       -65.9884544987
  Internal Pressure [bar]    =      -801.2949319485
  Real energy change         =        -0.0000072347
  Predicted change in energy =        -0.0000042736
  Scaling factor             =         0.0000000000
  Step size                  =         0.0083603047
  Trust radius               =         0.4724315332
  Decrease in energy         =                  YES
  Used time                  =                6.161

  Convergence check :
  Max. step size             =         0.0083603047
  Conv. limit for step size  =         0.0030000000
  Convergence in step size   =                   NO
  RMS step size              =         0.0032264178
  Conv. limit for RMS step   =         0.0015000000
  Convergence in RMS step    =                   NO
  Max. gradient              =         0.0013734342
  Conv. limit for gradients  =         0.0000190000
  Conv. for gradients        =                   NO
  RMS gradient               =         0.0004445866
  Conv. limit for RMS grad.  =         0.0003000000
  Conv. for gradients        =                   NO
  Pressure Deviation [bar]   =      -901.2949319485
  Pressure Tolerance [bar]   =       100.0000000000
  Conv. for  PRESSURE        =                   NO
 ---------------------------------------------------
 Estimated peak process memory after this step [MiB]                         355

 --------------------------
 OPTIMIZATION STEP:      5
 --------------------------

 CELL| Volume [angstrom^3]:                                           208.364959
 CELL| Vector a [angstrom]:      -0.024     4.675     4.675   |a| =     6.612030
 CELL| Vector b [angstrom]:       4.683    -0.054     4.675   |b| =     6.617397
 CELL| Vector c [angstrom]:       4.681     4.712    -0.054   |c| =     6.641955
 CELL| Angle (b,c), alpha [degree]:                                    60.841253
 CELL| Angle (a,c), beta  [degree]:                                    60.439234
 CELL| Angle (a,b), gamma [degree]:                                    60.577703
 CELL| Numerically orthorhombic:                                              NO
 CELL| Periodicity                                                           XYZ

 Number of electrons:                                                         32
 Number of occupied orbitals:                                                 16
 Number of molecular orbitals:                                                16

 Number of orbital functions:                                                 55
 Number of independent orbital functions:                                     55

 Extrapolation method: initial_guess


 SCF WAVEFUNCTION OPTIMIZATION

  Step     Update method      Time    Convergence         Total energy    Change
  ------------------------------------------------------------------------------
     1 Broy./Diag. 0.30E+00    0.3     0.29762797       -65.9880041770 -6.60E+01
     2 Broy./Diag. 0.30E+00    0.6     0.00077098       -65.9892418595 -1.24E-03
     3 Broy./Diag. 0.30E+00    0.6     0.00071720       -65.9886734999  5.68E-04
     4 Broy./Diag. 0.30E+00    0.6     0.00020303       -65.9884254427  2.48E-04
     5 Broy./Diag. 0.30E+00    0.6     0.00002860       -65.9884286565 -3.21E-06
     6 Broy./Diag. 0.30E+00    0.6     0.00002114       -65.9884587004 -3.00E-05
     7 Broy./Diag. 0.30E+00    0.6     0.00000522       -65.9884798935 -2.12E-05
     8 Broy./Diag. 0.30E+00    0.6     0.00000063       -65.9884846566 -4.76E-06

  *** SCF run converged in     8 steps ***


  Electronic density on regular grids:        -32.0000006892       -0.0000006892
  Core density on regular grids:               31.9999994918       -0.0000005082
  Total charge density on r-space grids:       -0.0000011974
  Total charge density g-space grids:          -0.0000011974

  Overlap energy of the core charge distribution:               0.00000000000000
  Self energy of the core charge distribution:               -138.89582544120611
  Core Hamiltonian energy:                                     27.19976556634210
  Hartree energy:                                              56.71353584790978
  Exchange-correlation energy:                                -11.00596062959990

  Total energy:                                               -65.98848465655414

 ENERGY| Total FORCE_EVAL ( QS ) energy [a.u.]:              -65.988479948238151

 --------  Informations at step =     5 ------------
  Optimization Method        =                 BFGS
  Total Energy               =       -65.9884799482
  Internal Pressure [bar]    =      -889.8477271312
  Real energy change         =        -0.0000254495
  Predicted change in energy =        -0.0000153537
  Scaling factor             =         0.0000000000
  Step size                  =         0.0231829039
  Trust radius               =         0.4724315332
  Decrease in energy         =                  YES
  Used time                  =                6.153

  Convergence check :
  Max. step size             =         0.0231829039
  Conv. limit for step size  =         0.0030000000
  Convergence in step size   =                   NO
  RMS step size              =         0.0082160891
  Conv. limit for RMS step   =         0.0015000000
  Convergence in RMS step    =                   NO
  Max. gradient              =         0.0012907087
  Conv. limit for gradients  =         0.0000190000
  Conv. for gradients        =                   NO
  RMS gradient               =         0.0004527534
  Conv. limit for RMS grad.  =         0.0003000000
  Conv. for gradients        =                   NO
  Pressure Deviation [bar]   =      -989.8477271312
  Pressure Tolerance [bar]   =       100.0000000000
  Conv. for  PRESSURE        =                   NO
 ---------------------------------------------------
 Estimated peak process memory after this step [MiB]                         355

 --------------------------
 OPTIMIZATION STEP:      6
 --------------------------

 CELL| Volume [angstrom^3]:                                           208.350283
 CELL| Vector a [angstrom]:      -0.027     4.675     4.675   |a| =     6.612041
 CELL| Vector b [angstrom]:       4.682    -0.057     4.675   |b| =     6.616587
 CELL| Vector c [angstrom]:       4.678     4.708    -0.055   |c| =     6.637103
 CELL| Angle (b,c), alpha [degree]:                                    60.879357
 CELL| Angle (a,c), beta  [degree]:                                    60.471927
 CELL| Angle (a,b), gamma [degree]:                                    60.612747
 CELL| Numerically orthorhombic:                                              NO
 CELL| Periodicity                                                           XYZ

 Number of electrons:                                                         32
 Number of occupied orbitals:                                                 16
 Number of molecular orbitals:                                                16

 Number of orbital functions:                                                 55
 Number of independent orbital functions:                                     55

 Extrapolation method: initial_guess


 SCF WAVEFUNCTION OPTIMIZATION

  Step     Update method      Time    Convergence         Total energy    Change
  ------------------------------------------------------------------------------
     1 Broy./Diag. 0.30E+00    0.3     0.25230132       -65.9881453790 -6.60E+01
     2 Broy./Diag. 0.30E+00    0.6     0.00034964       -65.9888682166 -7.23E-04
     3 Broy./Diag. 0.30E+00    0.6     0.00047842       -65.9885825559  2.86E-04
     4 Broy./Diag. 0.30E+00    0.6     0.00016341       -65.9884968352  8.57E-05
     5 Broy./Diag. 0.30E+00    0.6     0.00003617       -65.9885070830 -1.02E-05
     6 Broy./Diag. 0.30E+00    0.6     0.00002902       -65.9885165890 -9.51E-06
     7 Broy./Diag. 0.30E+00    0.6     0.00000612       -65.9885238863 -7.30E-06
     8 Broy./Diag. 0.30E+00    0.6     0.00000097       -65.9885262036 -2.32E-06

  *** SCF run converged in     8 steps ***


  Electronic density on regular grids:        -32.0000001894       -0.0000001894
  Core density on regular grids:               31.9999994943       -0.0000005057
  Total charge density on r-space grids:       -0.0000006952
  Total charge density g-space grids:          -0.0000006952

  Overlap energy of the core charge distribution:               0.00000000000000
  Self energy of the core charge distribution:               -138.89582544120611
  Core Hamiltonian energy:                                     27.19911771813929
  Hartree energy:                                              56.71391848217377
  Exchange-correlation energy:                                -11.00573696268928

  Total energy:                                               -65.98852620358232

 ENERGY| Total FORCE_EVAL ( QS ) energy [a.u.]:              -65.988524350280244

 --------  Informations at step =     6 ------------
  Optimization Method        =                 BFGS
  Total Energy               =       -65.9885243503
  Internal Pressure [bar]    =      -952.1603705693
  Real energy change         =        -0.0000444020
  Predicted change in energy =        -0.0000281557
  Scaling factor             =         0.0000000000
  Step size                  =         0.0377116515
  Trust radius               =         0.4724315332
  Decrease in energy         =                  YES
  Used time                  =                6.173

  Convergence check :
  Max. step size             =         0.0377116515
  Conv. limit for step size  =         0.0030000000
  Convergence in step size   =                   NO
  RMS step size              =         0.0130379399
  Conv. limit for RMS step   =         0.0015000000
  Convergence in RMS step    =                   NO
  Max. gradient              =         0.0011834389
  Conv. limit for gradients  =         0.0000190000
  Conv. for gradients        =                   NO
  RMS gradient               =         0.0004481122
  Conv. limit for RMS grad.  =         0.0003000000
  Conv. for gradients        =                   NO
  Pressure Deviation [bar]   =     -1052.1603705693
  Pressure Tolerance [bar]   =       100.0000000000
  Conv. for  PRESSURE        =                   NO
 ---------------------------------------------------
 Estimated peak process memory after this step [MiB]                         364

 --------------------------
 OPTIMIZATION STEP:      7
 --------------------------

 CELL| Volume [angstrom^3]:                                           208.054974
 CELL| Vector a [angstrom]:      -0.030     4.675     4.675   |a| =     6.612057
 CELL| Vector b [angstrom]:       4.679    -0.059     4.675   |b| =     6.614596
 CELL| Vector c [angstrom]:       4.671     4.699    -0.056   |c| =     6.625613
 CELL| Angle (b,c), alpha [degree]:                                    60.897655
 CELL| Angle (a,c), beta  [degree]:                                    60.506773
 CELL| Angle (a,b), gamma [degree]:                                    60.642346
 CELL| Numerically orthorhombic:                                              NO
 CELL| Periodicity                                                           XYZ

 Number of electrons:                                                         32
 Number of occupied orbitals:                                                 16
 Number of molecular orbitals:                                                16

 Number of orbital functions:                                                 55
 Number of independent orbital functions:                                     55

 Extrapolation method: initial_guess


 SCF WAVEFUNCTION OPTIMIZATION

  Step     Update method      Time    Convergence         Total energy    Change
  ------------------------------------------------------------------------------
     1 Broy./Diag. 0.30E+00    0.3     0.27935930       -65.9887101151 -6.60E+01
     2 Broy./Diag. 0.30E+00    0.6     0.00124690       -65.9874900773  1.22E-03
     3 Broy./Diag. 0.30E+00    0.6     0.00126953       -65.9883353006 -8.45E-04
     4 Broy./Diag. 0.30E+00    0.6     0.00035287       -65.9886573556 -3.22E-04
     5 Broy./Diag. 0.30E+00    0.6     0.00005346       -65.9886444832  1.29E-05
     6 Broy./Diag. 0.30E+00    0.6     0.00004138       -65.9886173384  2.71E-05
     7 Broy./Diag. 0.30E+00    0.6     0.00001037       -65.9885961295  2.12E-05
     8 Broy./Diag. 0.30E+00    0.6     0.00000256       -65.9885887467  7.38E-06
     9 Broy./Diag. 0.30E+00    0.6     0.00000098       -65.9885901337 -1.39E-06

  *** SCF run converged in     9 steps ***


  Electronic density on regular grids:        -31.9999991324        0.0000008676
  Core density on regular grids:               31.9999994959       -0.0000005041
  Total charge density on r-space grids:        0.0000003635
  Total charge density g-space grids:           0.0000003635

  Overlap energy of the core charge distribution:               0.00000000000000
  Self energy of the core charge distribution:               -138.89582544120611
  Core Hamiltonian energy:                                     27.19995375656561
  Hartree energy:                                              56.71350314905123
  Exchange-correlation energy:                                -11.00622159811130

  Total energy:                                               -65.98859013370057

 ENERGY| Total FORCE_EVAL ( QS ) energy [a.u.]:              -65.988592014366333

 --------  Informations at step =     7 ------------
  Optimization Method        =                 BFGS
  Total Energy               =       -65.9885920144
  Internal Pressure [bar]    =      -897.8694683389
  Real energy change         =        -0.0000676641
  Predicted change in energy =        -0.0000480902
  Scaling factor             =         0.0000000000
  Step size                  =         0.0622760632
  Trust radius               =         0.4724315332
  Decrease in energy         =                  YES
  Used time                  =                6.709

  Convergence check :
  Max. step size             =         0.0622760632
  Conv. limit for step size  =         0.0030000000
  Convergence in step size   =                   NO
  RMS step size              =         0.0207987849
  Conv. limit for RMS step   =         0.0015000000
  Convergence in RMS step    =                   NO
  Max. gradient              =         0.0011568081
  Conv. limit for gradients  =         0.0000190000
  Conv. for gradients        =                   NO
  RMS gradient               =         0.0003904125
  Conv. limit for RMS grad.  =         0.0003000000
  Conv. for gradients        =                   NO
  Pressure Deviation [bar]   =      -997.8694683389
  Pressure Tolerance [bar]   =       100.0000000000
  Conv. for  PRESSURE        =                   NO
 ---------------------------------------------------
 Estimated peak process memory after this step [MiB]                         364

 --------------------------
 OPTIMIZATION STEP:      8
 --------------------------

 CELL| Volume [angstrom^3]:                                           207.553447
 CELL| Vector a [angstrom]:      -0.032     4.675     4.675   |a| =     6.612065
 CELL| Vector b [angstrom]:       4.676    -0.057     4.675   |b| =     6.612525
 CELL| Vector c [angstrom]:       4.664     4.689    -0.052   |c| =     6.614126
 CELL| Angle (b,c), alpha [degree]:                                    60.858829
 CELL| Angle (a,c), beta  [degree]:                                    60.508127
 CELL| Angle (a,b), gamma [degree]:                                    60.629556
 CELL| Numerically orthorhombic:                                              NO
 CELL| Periodicity                                                           XYZ

 Number of electrons:                                                         32
 Number of occupied orbitals:                                                 16
 Number of molecular orbitals:                                                16

 Number of orbital functions:                                                 55
 Number of independent orbital functions:                                     55

 Extrapolation method: initial_guess


 SCF WAVEFUNCTION OPTIMIZATION

  Step     Update method      Time    Convergence         Total energy    Change
  ------------------------------------------------------------------------------
     1 Broy./Diag. 0.30E+00    0.3     0.27976399       -65.9893862384 -6.60E+01
     2 Broy./Diag. 0.30E+00    0.6     0.00278134       -65.9859005183  3.49E-03
     3 Broy./Diag. 0.30E+00    0.6     0.00229312       -65.9876967972 -1.80E-03
     4 Broy./Diag. 0.30E+00    0.6     0.00027180       -65.9886928370 -9.96E-04
     5 Broy./Diag. 0.30E+00    0.6     0.00003365       -65.9888020903 -1.09E-04
     6 Broy./Diag. 0.30E+00    0.6     0.00003921       -65.9887070084  9.51E-05
     7 Broy./Diag. 0.30E+00    0.6     0.00001073       -65.9886458130  6.12E-05
     8 Broy./Diag. 0.30E+00    0.6     0.00000145       -65.9886311085  1.47E-05
     9 Broy./Diag. 0.30E+00    0.6     0.00000218       -65.9886374904 -6.38E-06
    10 Broy./Diag. 0.30E+00    0.6     0.00000026       -65.9886408977 -3.41E-06

  *** SCF run converged in    10 steps ***


  Electronic density on regular grids:        -31.9999994020        0.0000005980
  Core density on regular grids:               31.9999994951       -0.0000005049
  Total charge density on r-space grids:        0.0000000931
  Total charge density g-space grids:           0.0000000931

  Overlap energy of the core charge distribution:               0.00000000000000
  Self energy of the core charge distribution:               -138.89582544120611
  Core Hamiltonian energy:                                     27.20252480669527
  Hartree energy:                                              56.71210497132810
  Exchange-correlation energy:                                -11.00744523454279

  Total energy:                                               -65.98864089772553

 ENERGY| Total FORCE_EVAL ( QS ) energy [a.u.]:              -65.988641471657388

 --------  Informations at step =     8 ------------
  Optimization Method        =                 BFGS
  Total Energy               =       -65.9886414717
  Internal Pressure [bar]    =      -694.0138684075
  Real energy change         =        -0.0000494573
  Predicted change in energy =        -0.0000365944
  Scaling factor             =         0.0000000000
  Step size                  =         0.0481804663
  Trust radius               =         0.4724315332
  Decrease in energy         =                  YES
  Used time                  =                7.337

  Convergence check :
  Max. step size             =         0.0481804663
  Conv. limit for step size  =         0.0030000000
  Convergence in step size   =                   NO
  RMS step size              =         0.0156342495
  Conv. limit for RMS step   =         0.0015000000
  Convergence in RMS step    =                   NO
  Max. gradient              =         0.0006452378
  Conv. limit for gradients  =         0.0000190000
  Conv. for gradients        =                   NO
  RMS gradient               =         0.0002647381
  Conv. limit for RMS grad.  =         0.0003000000
  Conv. in RMS gradients     =                  YES
  Pressure Deviation [bar]   =      -794.0138684075
  Pressure Tolerance [bar]   =       100.0000000000
  Conv. for  PRESSURE        =                   NO
 ---------------------------------------------------
 Estimated peak process memory after this step [MiB]                         365

 --------------------------
 OPTIMIZATION STEP:      9
 --------------------------

 CELL| Volume [angstrom^3]:                                           207.148857
 CELL| Vector a [angstrom]:      -0.031     4.675     4.675   |a| =     6.612062
 CELL| Vector b [angstrom]:       4.674    -0.053     4.675   |b| =     6.611329
 CELL| Vector c [angstrom]:       4.662     4.683    -0.048   |c| =     6.608011
 CELL| Angle (b,c), alpha [degree]:                                    60.800182
 CELL| Angle (a,c), beta  [degree]:                                    60.487031
 CELL| Angle (a,b), gamma [degree]:                                    60.594391
 CELL| Numerically orthorhombic:                                              NO
 CELL| Periodicity                                                           XYZ

 Number of electrons:                                                         32
 Number of occupied orbitals:                                                 16
 Number of molecular orbitals:                                                16

 Number of orbital functions:                                                 55
 Number of independent orbital functions:                                     55

 Extrapolation method: initial_guess


 SCF WAVEFUNCTION OPTIMIZATION

  Step     Update method      Time    Convergence         Total energy    Change
  ------------------------------------------------------------------------------
     1 Broy./Diag. 0.30E+00    0.3     0.27105952       -65.9893899387 -6.60E+01
     2 Broy./Diag. 0.30E+00    0.6     0.00252270       -65.9863014245  3.09E-03
     3 Broy./Diag. 0.30E+00    0.6     0.00198139       -65.9878125607 -1.51E-03
     4 Broy./Diag. 0.30E+00    0.6     0.00026492       -65.9887440409 -9.31E-04
     5 Broy./Diag. 0.30E+00    0.6     0.00003430       -65.9888481860 -1.04E-04
     6 Broy./Diag. 0.30E+00    0.6     0.00003588       -65.9887215853  1.27E-04
     7 Broy./Diag. 0.30E+00    0.6     0.00000903       -65.9886577542  6.38E-05
     8 Broy./Diag. 0.30E+00    0.6     0.00000089       -65.9886497991  7.96E-06

  *** SCF run converged in     8 steps ***


  Electronic density on regular grids:        -31.9999992945        0.0000007055
  Core density on regular grids:               31.9999994969       -0.0000005031
  Total charge density on r-space grids:        0.0000002024
  Total charge density g-space grids:           0.0000002024

  Overlap energy of the core charge distribution:               0.00000000000000
  Self energy of the core charge distribution:               -138.89582544120611
  Core Hamiltonian energy:                                     27.20478311285724
  Hartree energy:                                              56.71088236547837
  Exchange-correlation energy:                                -11.00848983626624

  Total energy:                                               -65.98864979913674

 ENERGY| Total FORCE_EVAL ( QS ) energy [a.u.]:              -65.988661997828331

 --------  Informations at step =     9 ------------
  Optimization Method        =                 BFGS
  Total Energy               =       -65.9886619978
  Internal Pressure [bar]    =      -513.1345975731
  Real energy change         =        -0.0000205262
  Predicted change in energy =        -0.0000171069
  Scaling factor             =         0.0000000000
  Step size                  =         0.0288634436
  Trust radius               =         0.4724315332
  Decrease in energy         =                  YES
  Used time                  =                6.180

  Convergence check :
  Max. step size             =         0.0288634436
  Conv. limit for step size  =         0.0030000000
  Convergence in step size   =                   NO
  RMS step size              =         0.0090978586
  Conv. limit for RMS step   =         0.0015000000
  Convergence in RMS step    =                   NO
  Max. gradient              =         0.0004381905
  Conv. limit for gradients  =         0.0000190000
  Conv. for gradients        =                   NO
  RMS gradient               =         0.0001812919
  Conv. limit for RMS grad.  =         0.0003000000
  Conv. in RMS gradients     =                  YES
  Pressure Deviation [bar]   =      -613.1345975731
  Pressure Tolerance [bar]   =       100.0000000000
  Conv. for  PRESSURE        =                   NO
 ---------------------------------------------------
 Estimated peak process memory after this step [MiB]                         365

 --------------------------
 OPTIMIZATION STEP:     10
 --------------------------

 CELL| Volume [angstrom^3]:                                           207.075333
 CELL| Vector a [angstrom]:      -0.031     4.675     4.675   |a| =     6.612058
 CELL| Vector b [angstrom]:       4.674    -0.052     4.675   |b| =     6.611242
 CELL| Vector c [angstrom]:       4.662     4.683    -0.047   |c| =     6.608104
 CELL| Angle (b,c), alpha [degree]:                                    60.779474
 CELL| Angle (a,c), beta  [degree]:                                    60.475438
 CELL| Angle (a,b), gamma [degree]:                                    60.578503
 CELL| Numerically orthorhombic:                                              NO
 CELL| Periodicity                                                           XYZ

 Number of electrons:                                                         32
 Number of occupied orbitals:                                                 16
 Number of molecular orbitals:                                                16

 Number of orbital functions:                                                 55
 Number of independent orbital functions:                                     55

 Extrapolation method: initial_guess


 SCF WAVEFUNCTION OPTIMIZATION

  Step     Update method      Time    Convergence         Total energy    Change
  ------------------------------------------------------------------------------
     1 Broy./Diag. 0.30E+00    0.3     0.28099475       -65.9888399768 -6.60E+01
     2 Broy./Diag. 0.30E+00    0.6     0.00055401       -65.9882600732  5.80E-04
     3 Broy./Diag. 0.30E+00    0.6     0.00048378       -65.9885551624 -2.95E-04
     4 Broy./Diag. 0.30E+00    0.6     0.00009504       -65.9886980885 -1.43E-04
     5 Broy./Diag. 0.30E+00    0.6     0.00001411       -65.9886970359  1.05E-06
     6 Broy./Diag. 0.30E+00    0.6     0.00001221       -65.9886750397  2.20E-05
     7 Broy./Diag. 0.30E+00    0.6     0.00000243       -65.9886627710  1.23E-05
     8 Broy./Diag. 0.30E+00    0.6     0.00000031       -65.9886606900  2.08E-06

  *** SCF run converged in     8 steps ***


  Electronic density on regular grids:        -31.9999995073        0.0000004927
  Core density on regular grids:               31.9999994955       -0.0000005045
  Total charge density on r-space grids:       -0.0000000118
  Total charge density g-space grids:          -0.0000000118

  Overlap energy of the core charge distribution:               0.00000000000000
  Self energy of the core charge distribution:               -138.89582544120611
  Core Hamiltonian energy:                                     27.20518327055893
  Hartree energy:                                              56.71066241890269
  Exchange-correlation energy:                                -11.00868093830500

  Total energy:                                               -65.98866069004950

 ENERGY| Total FORCE_EVAL ( QS ) energy [a.u.]:              -65.988663450175579

 --------  Informations at step =    10 ------------
  Optimization Method        =                 BFGS
  Total Energy               =       -65.9886634502
  Internal Pressure [bar]    =      -478.8943160013
  Real energy change         =        -0.0000014523
  Predicted change in energy =        -0.0000021814
  Scaling factor             =         0.0000000000
  Step size                  =         0.0102513753
  Trust radius               =         0.4724315332
  Decrease in energy         =                  YES
  Used time                  =                6.178

  Convergence check :
  Max. step size             =         0.0102513753
  Conv. limit for step size  =         0.0030000000
  Convergence in step size   =                   NO
  RMS step size              =         0.0039094988
  Conv. limit for RMS step   =         0.0015000000
  Convergence in RMS step    =                   NO
  Max. gradient              =         0.0003391853
  Conv. limit for gradients  =         0.0000190000
  Conv. for gradients        =                   NO
  RMS gradient               =         0.0001651965
  Conv. limit for RMS grad.  =         0.0003000000
  Conv. in RMS gradients     =                  YES
  Pressure Deviation [bar]   =      -578.8943160013
  Pressure Tolerance [bar]   =       100.0000000000
  Conv. for  PRESSURE        =                   NO
 ---------------------------------------------------
 Estimated peak process memory after this step [MiB]                         365

 --------------------------
 OPTIMIZATION STEP:     11
 --------------------------

 CELL| Volume [angstrom^3]:                                           207.073456
 CELL| Vector a [angstrom]:      -0.030     4.675     4.675   |a| =     6.612058
 CELL| Vector b [angstrom]:       4.674    -0.052     4.675   |b| =     6.611212
 CELL| Vector c [angstrom]:       4.662     4.683    -0.047   |c| =     6.608484
 CELL| Angle (b,c), alpha [degree]:                                    60.776270
 CELL| Angle (a,c), beta  [degree]:                                    60.473677
 CELL| Angle (a,b), gamma [degree]:                                    60.575077
 CELL| Numerically orthorhombic:                                              NO
 CELL| Periodicity                                                           XYZ

 Number of electrons:                                                         32
 Number of occupied orbitals:                                                 16
 Number of molecular orbitals:                                                16

 Number of orbital functions:                                                 55
 Number of independent orbital functions:                                     55

 Extrapolation method: initial_guess


 SCF WAVEFUNCTION OPTIMIZATION

  Step     Update method      Time    Convergence         Total energy    Change
  ------------------------------------------------------------------------------
     1 Broy./Diag. 0.30E+00    0.3     0.00140944       -65.9886789453 -6.60E+01
     2 Broy./Diag. 0.30E+00    0.6     0.00003597       -65.9886627427  1.62E-05
     3 Broy./Diag. 0.30E+00    0.6     0.00005108       -65.9886688740 -6.13E-06
     4 Broy./Diag. 0.30E+00    0.6     0.00001695       -65.9886677593  1.11E-06
     5 Broy./Diag. 0.30E+00    0.6     0.00000284       -65.9886649430  2.82E-06
     6 Broy./Diag. 0.30E+00    0.6     0.00000320       -65.9886643824  5.61E-07
     7 Broy./Diag. 0.30E+00    0.6     0.00000057       -65.9886642830  9.94E-08

  *** SCF run converged in     7 steps ***


  Electronic density on regular grids:        -32.0000001365       -0.0000001365
  Core density on regular grids:               31.9999994962       -0.0000005038
  Total charge density on r-space grids:       -0.0000006403
  Total charge density g-space grids:          -0.0000006403

  Overlap energy of the core charge distribution:               0.00000000000000
  Self energy of the core charge distribution:               -138.89582544120611
  Core Hamiltonian energy:                                     27.20518860770936
  Hartree energy:                                              56.71065805853638
  Exchange-correlation energy:                                -11.00868550802740

  Total energy:                                               -65.98866428298777

 ENERGY| Total FORCE_EVAL ( QS ) energy [a.u.]:              -65.988664358786409

 --------  Informations at step =    11 ------------
  Optimization Method        =                 BFGS
  Total Energy               =       -65.9886643588
  Internal Pressure [bar]    =      -478.8678651226
  Real energy change         =        -0.0000009086
  Predicted change in energy =        -0.0000004183
  Scaling factor             =         0.0000000000
  Step size                  =         0.0038350309
  Trust radius               =         0.4724315332
  Decrease in energy         =                  YES
  Used time                  =                5.664

  Convergence check :
  Max. step size             =         0.0038350309
  Conv. limit for step size  =         0.0030000000
  Convergence in step size   =                   NO
  RMS step size              =         0.0013449950
  Conv. limit for RMS step   =         0.0015000000
  Convergence in RMS step    =                  YES
  Max. gradient              =         0.0003086014
  Conv. limit for gradients  =         0.0000190000
  Conv. for gradients        =                   NO
  RMS gradient               =         0.0001578453
  Conv. limit for RMS grad.  =         0.0003000000
  Conv. in RMS gradients     =                  YES
  Pressure Deviation [bar]   =      -578.8678651226
  Pressure Tolerance [bar]   =       100.0000000000
  Conv. for  PRESSURE        =                   NO
 ---------------------------------------------------
 Estimated peak process memory after this step [MiB]                         366

 --------------------------
 OPTIMIZATION STEP:     12
 --------------------------

 CELL| Volume [angstrom^3]:                                           207.059036
 CELL| Vector a [angstrom]:      -0.030     4.675     4.675   |a| =     6.612057
 CELL| Vector b [angstrom]:       4.674    -0.051     4.675   |b| =     6.610896
 CELL| Vector c [angstrom]:       4.663     4.683    -0.047   |c| =     6.608820
 CELL| Angle (b,c), alpha [degree]:                                    60.771872
 CELL| Angle (a,c), beta  [degree]:                                    60.474023
 CELL| Angle (a,b), gamma [degree]:                                    60.569276
 CELL| Numerically orthorhombic:                                              NO
 CELL| Periodicity                                                           XYZ

 Number of electrons:                                                         32
 Number of occupied orbitals:                                                 16
 Number of molecular orbitals:                                                16

 Number of orbital functions:                                                 55
 Number of independent orbital functions:                                     55

 Extrapolation method: initial_guess


 SCF WAVEFUNCTION OPTIMIZATION

  Step     Update method      Time    Convergence         Total energy    Change
  ------------------------------------------------------------------------------
     1 Broy./Diag. 0.30E+00    0.3     0.27139938       -65.9886949097 -6.60E+01
     2 Broy./Diag. 0.30E+00    0.6     0.00009103       -65.9885922301  1.03E-04
     3 Broy./Diag. 0.30E+00    0.6     0.00010562       -65.9886540592 -6.18E-05
     4 Broy./Diag. 0.30E+00    0.6     0.00004016       -65.9886732985 -1.92E-05
     5 Broy./Diag. 0.30E+00    0.6     0.00000597       -65.9886698720  3.43E-06
     6 Broy./Diag. 0.30E+00    0.6     0.00000633       -65.9886677259  2.15E-06
     7 Broy./Diag. 0.30E+00    0.6     0.00000103       -65.9886663315  1.39E-06
     8 Broy./Diag. 0.30E+00    0.6     0.00000018       -65.9886659414  3.90E-07

  *** SCF run converged in     8 steps ***


  Electronic density on regular grids:        -31.9999998360        0.0000001640
  Core density on regular grids:               31.9999994957       -0.0000005043
  Total charge density on r-space grids:       -0.0000003403
  Total charge density g-space grids:          -0.0000003403

  Overlap energy of the core charge distribution:               0.00000000000000
  Self energy of the core charge distribution:               -138.89582544120611
  Core Hamiltonian energy:                                     27.20526343510785
  Hartree energy:                                              56.71061845711883
  Exchange-correlation energy:                                -11.00872239239906

  Total energy:                                               -65.98866594137850

 ENERGY| Total FORCE_EVAL ( QS ) energy [a.u.]:              -65.988666362047937

 --------  Informations at step =    12 ------------
  Optimization Method        =                 BFGS
  Total Energy               =       -65.9886663620
  Internal Pressure [bar]    =      -473.3341538815
  Real energy change         =        -0.0000020033
  Predicted change in energy =        -0.0000011886
  Scaling factor             =         0.0000000000
  Step size                  =         0.0072734949
  Trust radius               =         0.4724315332
  Decrease in energy         =                  YES
  Used time                  =                6.203

  Convergence check :
  Max. step size             =         0.0072734949
  Conv. limit for step size  =         0.0030000000
  Convergence in step size   =                   NO
  RMS step size              =         0.0024159717
  Conv. limit for RMS step   =         0.0015000000
  Convergence in RMS step    =                   NO
  Max. gradient              =         0.0002375634
  Conv. limit for gradients  =         0.0000190000
  Conv. for gradients        =                   NO
  RMS gradient               =         0.0001398297
  Conv. limit for RMS grad.  =         0.0003000000
  Conv. in RMS gradients     =                  YES
  Pressure Deviation [bar]   =      -573.3341538815
  Pressure Tolerance [bar]   =       100.0000000000
  Conv. for  PRESSURE        =                   NO
 ---------------------------------------------------
 Estimated peak process memory after this step [MiB]                         366

 --------------------------
 OPTIMIZATION STEP:     13
 --------------------------

 CELL| Volume [angstrom^3]:                                           207.012809
 CELL| Vector a [angstrom]:      -0.031     4.675     4.675   |a| =     6.612059
 CELL| Vector b [angstrom]:       4.672    -0.050     4.675   |b| =     6.610018
 CELL| Vector c [angstrom]:       4.663     4.682    -0.047   |c| =     6.608168
 CELL| Angle (b,c), alpha [degree]:                                    60.769943
 CELL| Angle (a,c), beta  [degree]:                                    60.481726
 CELL| Angle (a,b), gamma [degree]:                                    60.564462
 CELL| Numerically orthorhombic:                                              NO
 CELL| Periodicity                                                           XYZ

 Number of electrons:                                                         32
 Number of occupied orbitals:                                                 16
 Number of molecular orbitals:                                                16

 Number of orbital functions:                                                 55
 Number of independent orbital functions:                                     55

 Extrapolation method: initial_guess


 SCF WAVEFUNCTION OPTIMIZATION

  Step     Update method      Time    Convergence         Total energy    Change
  ------------------------------------------------------------------------------
     1 Broy./Diag. 0.30E+00    0.3     0.28426430       -65.9887117591 -6.60E+01
     2 Broy./Diag. 0.30E+00    0.6     0.00020599       -65.9883901535  3.22E-04
     3 Broy./Diag. 0.30E+00    0.6     0.00021449       -65.9885861177 -1.96E-04
     4 Broy./Diag. 0.30E+00    0.6     0.00005949       -65.9886749337 -8.88E-05
     5 Broy./Diag. 0.30E+00    0.6     0.00000943       -65.9886810974 -6.16E-06
     6 Broy./Diag. 0.30E+00    0.6     0.00000719       -65.9886756185  5.48E-06

 *** SCF run terminated - exceeded requested execution time:      90.000 seconds.

 *** Execution time now:       90.091 seconds.

  Leaving inner SCF loop after reaching     6 steps.


  Electronic density on regular grids:        -32.0000107782       -0.0000107782
  Core density on regular grids:               31.9999994954       -0.0000005046
  Total charge density on r-space grids:       -0.0000112829
  Total charge density g-space grids:          -0.0000112829

  Overlap energy of the core charge distribution:               0.00000000000000
  Self energy of the core charge distribution:               -138.89582544120611
  Core Hamiltonian energy:                                     27.20551892799071
  Hartree energy:                                              56.71047599826301
  Exchange-correlation energy:                                -11.00884510352790

  Total energy:                                               -65.98867561848030

 *** WARNING in qs_scf.F:603 :: SCF run NOT converged ***


 ENERGY| Total FORCE_EVAL ( QS ) energy [a.u.]:              -65.988669378279326

 *** GEO run terminated - exceeded requested execution time:      90.000 seconds.

 *** Execution time now:       91.559 seconds.

 -------------------------------------------------------------------------------
 -                                                                             -
 -                                DBCSR STATISTICS                             -
 -                                                                             -
 -------------------------------------------------------------------------------
 COUNTER                                    TOTAL       BLAS       SMM       ACC
 flops inhomo. stacks                           0       0.0%      0.0%      0.0%
 flops total                         0.000000E+00       0.0%      0.0%      0.0%
 flops max/rank                      0.000000E+00       0.0%      0.0%      0.0%
 matmuls inhomo. stacks                         0       0.0%      0.0%      0.0%
 matmuls total                                  0       0.0%      0.0%      0.0%
 number of processed stacks                     0       0.0%      0.0%      0.0%
 average stack size                                     0.0       0.0       0.0
 marketing flops                     0.000000E+00
 -------------------------------------------------------------------------------
 -                                                                             -
 -                      DBCSR MESSAGE PASSING PERFORMANCE                      -
 -                                                                             -
 -------------------------------------------------------------------------------
 ROUTINE             CALLS      AVE VOLUME [Bytes]
 MP_Bcast                1                     12.
 MP_Allreduce        61446                      8.
 MP_Alltoall         99413                  26536.
 -------------------------------------------------------------------------------

 -------------------------------------------------------------------------------
 -                                                                             -
 -                                DBM STATISTICS                               -
 -                                                                             -
 -------------------------------------------------------------------------------
    M  x    N  x    K                                          COUNT     PERCENT
 -------------------------------------------------------------------------------

 -------------------------------------------------------------------------------
 -                                                                             -
 -                                GRID STATISTICS                              -
 -                                                                             -
 -------------------------------------------------------------------------------
 LP    KERNEL             BACKEND                              COUNT     PERCENT
 4     collocate general  CPU                                 683035      50.00%
 4     integrate general  CPU                                 611707      44.77%
 7     integrate general  CPU                                  71328       5.22%
 0     collocate general  CPU                                     56       0.00%
 3     integrate general  CPU                                     56       0.00%
 -------------------------------------------------------------------------------

 MEMORY| Estimated peak process memory [MiB]                                 368

 -------------------------------------------------------------------------------
 -                                                                             -
 -                         MESSAGE PASSING PERFORMANCE                         -
 -                                                                             -
 -------------------------------------------------------------------------------

 ROUTINE             CALLS      AVE VOLUME [Bytes]
 MP_Group               57
 MP_Bcast            57030                  11091.
 MP_Allreduce        30753                     76.
 MP_Sync              1677
 MP_Alltoall          4016              518936081.
 MP_SendRecv         52250                   6500.
 MP_ISendRecv        52250                   6500.
 MP_Wait             66574
 MP_comm_split          15
 MP_ISend            26744                    327.
 MP_IRecv            33364                    270.
 -------------------------------------------------------------------------------


 -------------------------------------------------------------------------------
 -                                                                             -
 -                           R E F E R E N C E S                               -
 -                                                                             -
 -------------------------------------------------------------------------------
 
 CP2K version 2024.1, the CP2K developers group (2024).
 CP2K is freely available from https://www.cp2k.org/ .

 Kuehne,Thomas D.; Iannuzzi,Marcella; Del Ben,Mauro;
 Rybkin,Vladimir V.; Seewald,Patrick; Stein,Frederick; Laino,Teodoro;
 Khaliullin,Rustam Z.; Schuett,Ole; Schiffmann,Florian; Golze,Dorothea;
 Wilhelm,Jan; Chulkov,Sergey; Bani-Hashemian,Mohammad Hossein;
 Weber,Valery; Borstnik,Urban; Taillefumier,Mathieu;
 Jakobovits,Alice Shoshana; Lazzaro,Alfio; Pabst,Hans; Mueller,Tiziano;
 Schade,Robert; Guidon,Manuel; Andermatt,Samuel; Holmberg,Nico;
 Schenter,Gregory K.; Hehn,Anna; Bussy,Augustin; Belleflamme,Fabian;
 Tabacchi,Gloria; Gloess,Andreas; Lass,Michael; Bethune,Iain;
 Mundy,Christopher J.; Plessl,Christian; Watkins,Matt;
 VandeVondele,Joost; Krack,Matthias; Hutter,Juerg. 
 The Journal of Chemical Physics, 152 (19), (2020). 
 CP2K: An electronic structure and molecular dynamics software package -
 Quickstep: Efficient and accurate electronic structure calculations.
 https://doi.org/10.1063/5.0007045

 Togo, Atsushi; Tanaka, Isao. arXiv, 1808.01590 (2018). 
 Spglib : a software library for crystal symmetry search.
 https://doi.org/xxx

 Schuett, Ole; Messmer, Peter; Hutter, Juerg; VandeVondele, Joost. 
 Electronic Structure Calculations on Graphics Processing Units, John
 Wiley & Sons, Ltd, 173-190 (2016). 
 GPU-Accelerated Sparse Matrix-Matrix Multiplication for
 Linear Scaling Density Functional Theory.
 https://doi.org/10.1002/9781118670712.ch8

 Heinecke, A; Henry, G; Hutchinson, M; Pabst, H. 
 Proceedings of Intl. Supercomputing Conference, 981-991 (2016). 
 LIBXSMM: Accelerating Small Matrix Multiplications
 by Runtime Code Generation.
 https://doi.org/10.1109/SC.2016.83

 Borstnik, U; VandeVondele, J; Weber, V; Hutter, J. 
 PARALLEL COMPUTING, 40 (5-6), 47-58 (2014). 
 Sparse matrix multiplication: The distributed block-compressed sparse
 row library.
 https://doi.org/10.1016/j.parco.2014.03.012

 Hutter, J; Iannuzzi, M; Schiffmann, F; VandeVondele, J. 
 WIREs Comput Mol Sci., 4 (1), 15-25 (2014). 
 CP2K: atomistic simulations of condensed matter systems.
 https://doi.org/10.1002/wcms.1159

 Marek, A; Blum, V; Johanni, R; Havu, V; Lang, B; Auckenthaler, T;
 Heinecke, A; Bungartz, H; Lederer, H. 
 Journal of Physics: Condensed Matter, 26 (21), (2014). 
 The ELPA library: scalable parallel eigenvalue solutions for
 electronic structure
 theory and computational science.
 https://doi.org/10.1088/0953-8984/26/21/213201

 VandeVondele, J; Hutter, J. 
 JOURNAL OF CHEMICAL PHYSICS, 127 (11), 114105 (2007). 
 Gaussian basis sets for accurate calculations on molecular systems in
 gas and condensed phases.
 https://doi.org/10.1063/1.2770708

 Krack, M. 
 THEORETICAL CHEMISTRY ACCOUNTS, 114 (1-3), 145-152 (2005). 
 Pseudopotentials for H to Kr optimized for gradient-corrected
 exchange-correlation functionals.
 https://doi.org/10.1007/s00214-005-0655-y

 VandeVondele, J; Krack, M; Mohamed, F; Parrinello, M; Chassaing, T;
 Hutter, J. COMPUTER PHYSICS COMMUNICATIONS, 167 (2), 103-128 (2005). 
 QUICKSTEP: Fast and accurate density functional calculations using a
 mixed Gaussian and plane waves approach.
 https://doi.org/10.1016/j.cpc.2004.12.014

 Frigo, M; Johnson, SG. 
 PROCEEDINGS OF THE IEEE, 93 (2), 216-231 (2005). 
 The design and implementation of FFTW3.
 https://doi.org/10.1109/JPROC.2004.840301

 Hartwigsen, C; Goedecker, S; Hutter, J. 
 PHYSICAL REVIEW B, 58 (7), 3641-3662 (1998). 
 Relativistic separable dual-space Gaussian pseudopotentials from H to Rn.
 https://doi.org/10.1103/PhysRevB.58.3641

 Lippert, G; Hutter, J; Parrinello, M. 
 MOLECULAR PHYSICS, 92 (3), 477-487 (1997). 
 A hybrid Gaussian and plane wave density functional scheme.
 https://doi.org/10.1080/002689797170220

 Perdew, JP; Burke, K; Ernzerhof, M. 
 PHYSICAL REVIEW LETTERS, 77 (18), 3865-3868 (1996). 
 Generalized gradient approximation made simple.
 https://doi.org/10.1103/PhysRevLett.77.3865

 Goedecker, S; Teter, M; Hutter, J. 
 PHYSICAL REVIEW B, 54 (3), 1703-1710 (1996). 
 Separable dual-space Gaussian pseudopotentials.
 https://doi.org/10.1103/PhysRevB.54.1703


 -------------------------------------------------------------------------------
 -                                                                             -
 -                                T I M I N G                                  -
 -                                                                             -
 -------------------------------------------------------------------------------
 SUBROUTINE                       CALLS  ASD         SELF TIME        TOTAL TIME
                                MAXIMUM       AVERAGE  MAXIMUM  AVERAGE  MAXIMUM
 CP2K                                 1  1.0    0.037    0.051   91.583   91.584
 cp_cell_opt                          1  2.0    0.006    0.006   91.317   91.318
 geoopt_bfgs                          1  3.0    0.007    0.007   91.312   91.313
 cp_eval_at                          14  4.0    0.006    0.006   90.970   90.971
 qs_forces                           14  5.0    0.004    0.005   90.961   90.962
 qs_energies                         14  6.0    0.016    0.016   77.975   77.980
 scf_env_do_scf                      14  7.0    0.001    0.001   71.022   71.031
 scf_env_do_scf_inner_loop          120  8.0    0.020    0.024   71.021   71.030
 rebuild_ks_matrix                  134  9.7    0.000    0.001    2.574   42.086
 qs_ks_build_kohn_sham_matrix       134 10.7    0.047    0.048    2.574   42.085
 sum_up_and_integrate               134 11.7    0.001    0.001    1.968   41.461
 integrate_v_rspace                 134 12.7    0.003    0.039    1.966   41.458
 grid_integrate_task_list           134 13.7    1.178   40.658    1.178   40.658
 qs_scf_new_mos_kp                  120  9.0    0.002    0.002   35.415   36.319
 do_general_diag_kp                 120 10.0    0.013    0.013   35.413   36.317
 dbcsr_desymmetrize_deep           7046 11.3    0.067    0.081   33.988   34.927
 qs_ks_update_qs_env                120  9.0    0.001    0.001    2.802   33.298
 mp_alltoall_i22                  16215 12.5   31.693   32.647   31.693   32.647
 transfer_rs2pw                     550 11.9    0.003    0.003   31.188   32.149
 mp_sendrecv_dv                   52250 13.9   31.023   31.987   31.023   31.987
 transfer_rs2pw_100                 148 12.8    0.106    0.113   30.964   31.930
 qs_rho_update_rho_low              134  9.0    0.001    0.001   31.351   31.355
 calculate_rho_elec                 134 10.0    0.004    0.066   31.350   31.354
 density_rs2pw                      134 11.0    0.003    0.004   30.306   31.196
 grid_collocate_task_list           134 11.0    1.034   30.490    1.034   30.490
 qs_ks_update_qs_env_forces          14  6.0    0.000    0.000    0.541    9.555
 mp_sum_dm                          846  6.5    9.226    9.502    9.226    9.502
 copy_dbcsr_to_fm                  5126 10.4    0.028    0.030    5.352    5.367
 init_scf_run                        14  7.0    0.000    0.001    5.132    5.137
 scf_env_initial_rho_setup           14  8.0    0.000    0.001    5.132    5.137
 dbcsr_complete_redistribute       9169 11.7    0.166    0.237    4.734    4.748
 write_kpoints_restart              120  9.0    0.007    0.111    4.061    4.070
 mp_sum_d                         62896 12.6    3.797    4.023    3.797    4.023
 build_core_hamiltonian_matrix_      14  6.0    0.008    0.009    0.347    3.338
 calculate_ecore_overlap             28  7.0    0.000    0.000    3.083    3.301
 mp_alltoall_d11v                 48645 13.0    2.913    2.924    2.913    2.924
 mp_alltoall_i11v                 34553 12.6    2.872    2.874    2.872    2.874
 copy_fm_to_dbcsr                  4043 11.2    0.007    0.008    1.917    1.927
 calculate_first_density_matrix      14  9.0    0.003    0.006    1.833    1.838
 -------------------------------------------------------------------------------

 The number of warnings for this run is : 2
 
 -------------------------------------------------------------------------------
  **** **** ******  **  PROGRAM ENDED AT                 2024-07-05 02:42:39.588
 ***** ** ***  *** **   PROGRAM RAN ON                                     c0302
 **    ****   ******    PROGRAM RAN BY                                  nichdsas
 ***** **    ** ** **   PROGRAM PROCESS ID                                213175
  **** **  *******  **  PROGRAM STOPPED IN /scratch-grete/usr/nichdsas/test_pars
                                           er/cp2k-2024.1/cell_opt_walltime_low
