       4
 i =        1, E =       -65.9864189458
 Cs         2.1392005614        2.3374309124        2.3372787776
 Cs         7.1095556053        7.0131112585        7.0126023994
 Cs         4.3774294103        4.6751457276        4.6748325424
 Sb        -0.0002200871        0.0000987293        0.0000990817
       4
 i =        2, E =       -65.9884405680
 Cs         2.2183937601        2.3235745979        2.3152793035
 Cs         6.9247752231        7.0154683874        6.9891869451
 Cs         4.4858967215        4.6625397651        4.6456157999
 Sb        -0.0124794915        0.0052861253        0.0053414985
       4
 i =        3, E =       -65.9884472640
 Cs         2.2211903942        2.3229566378        2.3144739084
 Cs         6.9180541269        7.0154706633        6.9884481500
 Cs         4.4902257321        4.6619493579        4.6445609510
 Sb        -0.0136671955        0.0054777302        0.0055220021
       4
 i =        4, E =       -65.9884544987
 Cs         2.2231716364        2.3223004563        2.3138727491
 Cs         6.9129368732        7.0153051678        6.9880037922
 Cs         4.4941615860        4.6612835715        4.6437951560
 Sb        -0.0158160864        0.0056287782        0.0056400471
       4
 i =        5, E =       -65.9884799482
 Cs         2.2270424068        2.3203003398        2.3125910119
 Cs         6.9017351880        7.0144224032        6.9873864993
 Cs         4.5047309878        4.6591563914        4.6422248729
 Sb        -0.0243064173        0.0059748873        0.0058399722
       4
 i =        6, E =       -65.9885243503
 Cs         2.2304994252        2.3167833107        2.3111755306
 Cs         6.8887220540        7.0122854696        6.9874402745
 Cs         4.5211085142        4.6552568316        4.6406381433
 Sb        -0.0421922343        0.0064179842        0.0059480562
       4
 i =        7, E =       -65.9885920144
 Cs         2.2311406788        2.3111399785        2.3101057754
 Cs         6.8774737981        7.0079408915        6.9891727756
 Cs         4.5442560788        4.6487497514        4.6398431639
 Sb        -0.0752265617        0.0069206744        0.0057587042
       4
 i =        8, E =       -65.9886414717
 Cs         2.2257139272        2.3076758034        2.3108188207
 Cs         6.8817016307        7.0040568167        6.9921562090
 Cs         4.5548987320        4.6444861794        4.6414666671
 Sb        -0.1007202842        0.0069730493        0.0051944908
       4
 i =        9, E =       -65.9886619978
 Cs         2.2186310996        2.3073366216        2.3123303128
 Cs         6.8941557918        7.0021831214        6.9945543725
 Cs         4.5521622521        4.6437927726        4.6439739965
 Sb        -0.1090371527        0.0066551306        0.0046417486
       4
 i =       10, E =       -65.9886634502
 Cs         2.2161600971        2.3082619245        2.3129034276
 Cs         6.8997065714        7.0022050791        6.9949413228
 Cs         4.5472610940        4.6447765983        4.6449148867
 Sb        -0.1055998258        0.0064369348        0.0045129555
       4
 i =       11, E =       -65.9886643588
 Cs         2.2155225599        2.3086691007        2.3129325473
 Cs         6.9006435366        7.0021516214        6.9948796364
 Cs         4.5456253343        4.6452320343        4.6451386857
 Sb        -0.1035676290        0.0063589327        0.0045044549
       4
 i =       12, E =       -65.9886663620
 Cs         2.2137565198        2.3094634919        2.3127427577
 Cs         6.9014619874        7.0014439393        6.9946722793
 Cs         4.5428718378        4.6461095768        4.6456777965
 Sb        -0.0997104583        0.0061661302        0.0044874828
