#     Step Nr.          Time[fs]        Kin.[a.u.]          Temp[K]            Pot.[a.u.]        Cons Qty[a.u.]        UsedTime[s]
         0            0.000000         0.273612846       300.000000000     -1103.356751380     -1102.809525688         0.000000000
         1            0.500000         0.275296282       301.845786707     -1103.358390989     -1102.809495605        30.015677559
         2            1.000000         0.278348230       305.192063380     -1103.361440155     -1102.809507732         5.207547361
         3            1.500000         0.282648673       309.907240300     -1103.365772331     -1102.809554606         4.682788245
         4            2.000000         0.287465147       315.188214323     -1103.370647586     -1102.809627570         5.275941544
         5            2.500000         0.291682445       319.812226775     -1103.374912847     -1102.809687692         5.299972843
