 DBCSR| CPU Multiplication driver                                           XSMM (U)
 DBCSR| Multrec recursion limit                                              512 (U)
 DBCSR| Multiplication stack size                                           1000 (D)
 DBCSR| Maximum elements for images                                    UNLIMITED (U)
 DBCSR| Multiplicative factor virtual images                                   1 (U)
 DBCSR| Use multiplication densification                                       T (D)
 DBCSR| Multiplication size stacks                                             3 (U)
 DBCSR| Use memory pool for CPU allocation                                     F (U)
 DBCSR| Number of 3D layers                                               SINGLE (U)
 DBCSR| Use MPI memory allocation                                              F (U)
 DBCSR| Use RMA algorithm                                                      F (U)
 DBCSR| Use Communication thread                                               T (U)
 DBCSR| Communication thread load                                             83 (D)
 DBCSR| MPI: My process id                                                     0
 DBCSR| MPI: Number of processes                                              48
 DBCSR| OMP: Current number of threads                                         2
 DBCSR| OMP: Max number of threads                                             2
 DBCSR| Split modifier for TAS multiplication algorithm                  1.0E+00 (U)


  **** **** ******  **  PROGRAM STARTED AT               2025-02-11 08:15:37.881
 ***** ** ***  *** **   PROGRAM STARTED ON                                 c0303
 **    ****   ******    PROGRAM STARTED BY                                u12591
 ***** **    ** ** **   PROGRAM PROCESS ID                               2299202
  **** **  *******  **  PROGRAM STARTED IN /mnt/lustre-grete/usr/u12591/cp2k_par
                                           ser_tests/cp2k-2025.1/cell_opt_max_st
                                           eps_low

 CP2K| version string:                                       CP2K version 2025.1
 CP2K| source code revision number:                                  git:9635df4
 CP2K| cp2kflags: omp libint fftw3 libxc libgrpp parallel scalapack mpi_f08 xsmm
 CP2K|             spglib libdftd4 libvori libbqb hdf5
 CP2K| is freely available from                            https://www.cp2k.org/
 CP2K| Program compiled at                          Tue Jan  7 11:11:50 CET 2025
 CP2K| Program compiled on                                              glogin11
 CP2K| Program compiled for                                                local
 CP2K| Data directory path    /mnt/lustre-grete/usr/u12591/software/cp2k/cp2k-20
 CP2K| Input file name                                                 aiida.inp

 GLOBAL| Force Environment number                                              1
 GLOBAL| Basis set file name                                        BASIS_MOLOPT
 GLOBAL| Potential file name                                      GTH_POTENTIALS
 GLOBAL| MM Potential file name                                     MM_POTENTIAL
 GLOBAL| Coordinate file name                                      __STD_INPUT__
 GLOBAL| Method name                                                        CP2K
 GLOBAL| Project name                                                      aiida
 GLOBAL| Run type                                                       CELL_OPT
 GLOBAL| FFT library                                                       FFTW3
 GLOBAL| Diagonalization library                                       ScaLAPACK
 GLOBAL| DGEMM library                                                      BLAS
 GLOBAL| Orthonormality check for eigenvectors                          DISABLED
 GLOBAL| Matrix multiplication library                                 ScaLAPACK
 GLOBAL| All-to-all communication in single precision                          F
 GLOBAL| FFTs using library dependent lengths                                  F
 GLOBAL| Grid backend                                                       AUTO
 GLOBAL| Global print level                                                  LOW
 GLOBAL| MPI I/O enabled                                                       T
 GLOBAL| Total number of message passing processes                            48
 GLOBAL| Number of threads for this process                                    2
 GLOBAL| This output is from process                                           0
 GLOBAL| OpenMP stack size per thread (OMP_STACKSIZE)                    default
 GLOBAL| CPU model name                           Intel(R) Xeon(R) Platinum 8468
 GLOBAL| CPUID                                                              1003

 MEMORY| system memory details [Kb]
 MEMORY|                        rank 0           min           max       average
 MEMORY| MemTotal            527928712     527928712     527928712     527928712
 MEMORY| MemFree             513840688     513840320     513840688     513840593
 MEMORY| Buffers                 14392         14392         14392         14392
 MEMORY| Cached                4422420       4422416       4422420       4422419
 MEMORY| Slab                  1920028       1920028       1920060       1920032
 MEMORY| SReclaimable           280848        280848        280848        280848
 MEMORY| MemLikelyFree       518558348     518557976     518558348     518558252


 GENERATE|  Preliminary Number of Bonds generated:                             0
 GENERATE|  Achieved consistency in connectivity generation.

 *******************************************************************************
 *******************************************************************************
 **                                                                           **
 **     #####                         ##              ##                      **
 **    ##   ##            ##          ##              ##                      **
 **   ##     ##                       ##            ######                    **
 **   ##     ##  ##   ##  ##   #####  ##  ##   ####   ##    #####    #####    **
 **   ##     ##  ##   ##  ##  ##      ## ##   ##      ##   ##   ##  ##   ##   **
 **   ##  ## ##  ##   ##  ##  ##      ####     ###    ##   ######   ######    **
 **    ##  ###   ##   ##  ##  ##      ## ##      ##   ##   ##       ##        **
 **     #######   #####   ##   #####  ##  ##  ####    ##    #####   ##        **
 **           ##                                                    ##        **
 **                                                                           **
 **                                                ... make the atoms dance   **
 **                                                                           **
 **            Copyright (C) by CP2K developers group (2000-2025)             **
 **                      J. Chem. Phys. 152, 194103 (2020)                    **
 **                                                                           **
 *******************************************************************************


 TOTAL NUMBERS AND MAXIMUM NUMBERS

  Total number of            - Atomic kinds:                                   2
                             - Atoms:                                          4
                             - Shell sets:                                     4
                             - Shells:                                        23
                             - Primitive Cartesian functions:                 23
                             - Cartesian basis functions:                     59
                             - Spherical basis functions:                     55

  Maximum angular momentum of- Orbital basis functions:                        2
                             - Local part of the GTH pseudopotential:          2
                             - Non-local part of the GTH pseudopotential:      4


 SCF PARAMETERS         Density guess:                                   RESTART
                        --------------------------------------------------------
                        max_scf:                                             150
                        max_scf_history:                                       0
                        max_diis:                                              4
                        --------------------------------------------------------
                        eps_scf:                                        1.00E-04
                        eps_scf_history:                                0.00E+00
                        eps_diis:                                       1.00E-01
                        eps_eigval:                                     1.00E-05
                        --------------------------------------------------------
                        level_shift [a.u.]:                             0.000000
                        --------------------------------------------------------
                        Mixing method:                            BROYDEN_MIXING
                                                charge density mixing in g-space
                        --------------------------------------------------------
                        No outer SCF

 CELL_OPT| Pressure tolerance [bar]:                                         1.0
 CELL_OPT| Keep angles between the cell vectors:                              NO
 CELL_OPT| Keep cell symmetry:                                                NO
 CELL_OPT| Constraint:                                                      NONE

 BFGS| Use rational function optimization for step estimation:                NO
 BFGS| Use model Hessian for initial guess:                                   NO
 BFGS| Restart Hessian:                                                       NO
 BFGS| Trust radius:                                                       0.472

 *******************************************************************************
 ***                     STARTING   CELL   OPTIMIZATION                      ***
 ***                                   BFGS                                  ***
 *******************************************************************************

 CELL| Volume [angstrom^3]:                                           204.400073
 CELL| Vector a [angstrom]:       0.000     4.675     4.675   |a| =     6.611987
 CELL| Vector b [angstrom]:       4.675     0.000     4.675   |b| =     6.611987
 CELL| Vector c [angstrom]:       4.675     4.675     0.000   |c| =     6.611987
 CELL| Angle (b,c), alpha [degree]:                                    60.000000
 CELL| Angle (a,c), beta  [degree]:                                    60.000000
 CELL| Angle (a,b), gamma [degree]:                                    60.000000
 CELL| Numerically orthorhombic:                                              NO
 CELL| Periodicity                                                           XYZ

 Number of electrons:                                                         32
 Number of occupied orbitals:                                                 16
 Number of molecular orbitals:                                                16

 Number of orbital functions:                                                 55
 Number of independent orbital functions:                                     55

 Extrapolation method: initial_guess

 *** WARNING in qs_initial_guess.F:303 :: User requested to restart the    ***
 *** wavefunction from the file named: aiida-RESTART.kp. This file does    ***
 *** not exist. Please check the existence of the file or change properly  ***
 *** the value of the keyword WFN_RESTART_FILE_NAME. Calculation continues ***
 *** using ATOMIC GUESS.                                                   ***



 SCF WAVEFUNCTION OPTIMIZATION

  Step     Update method      Time    Convergence         Total energy    Change
  ------------------------------------------------------------------------------
     1 NoMix/Diag. 0.30E+00    0.3     0.67185753       -66.3586357464 -6.64E+01
     2 Broy./Diag. 0.30E+00    0.3     0.17763520       -66.1732895784  1.85E-01
     3 Broy./Diag. 0.30E+00    0.3     0.29732513       -66.1120523534  6.12E-02
     4 Broy./Diag. 0.30E+00    0.3     0.10124020       -66.0396038444  7.24E-02
     5 Broy./Diag. 0.30E+00    0.3     0.07168579       -65.9773906376  6.22E-02
     6 Broy./Diag. 0.30E+00    0.3     0.00855401       -65.9801532257 -2.76E-03
     7 Broy./Diag. 0.30E+00    0.3     0.00552019       -65.9867857857 -6.63E-03
     8 Broy./Diag. 0.30E+00    0.3     0.00031922       -65.9877855811 -1.00E-03
     9 Broy./Diag. 0.30E+00    0.3     0.00025237       -65.9872380915  5.47E-04
    10 Broy./Diag. 0.30E+00    0.3     0.00000695       -65.9870595524  1.79E-04

  *** SCF run converged in    10 steps ***


  Electronic density on regular grids:        -31.9999999948        0.0000000052
  Core density on regular grids:               31.9999994881       -0.0000005119
  Total charge density on r-space grids:       -0.0000005066
  Total charge density g-space grids:          -0.0000005066

  Overlap energy of the core charge distribution:               0.00000000000000
  Self energy of the core charge distribution:               -138.89582544120611
  Core Hamiltonian energy:                                     27.22305691138325
  Hartree energy:                                              56.70226419104117
  Exchange-correlation energy:                                -11.01655521362095

  Total energy:                                               -65.98705955240264

 ENERGY| Total FORCE_EVAL ( QS ) energy [hartree]            -65.987059858820729

 OPT| **************************************************************************
 OPT| Step number                                                              0
 OPT| Optimization method                                                   BFGS
 OPT| Total energy [hartree]                                      -65.9870598588
 OPT| Internal pressure [bar]                                    1415.7498551617
 OPT| Used time [s]                                                        4.074
 OPT| **************************************************************************
 OPT| Estimated peak process memory [MiB]                                    256

 --------------------------
 OPTIMIZATION STEP:      1
 --------------------------

 CELL| Volume [angstrom^3]:                                           204.424096
 CELL| Vector a [angstrom]:      -0.000     4.675     4.675   |a| =     6.611987
 CELL| Vector b [angstrom]:       4.676    -0.000     4.675   |b| =     6.612118
 CELL| Vector c [angstrom]:       4.676     4.676    -0.000   |c| =     6.612249
 CELL| Angle (b,c), alpha [degree]:                                    60.001916
 CELL| Angle (a,c), beta  [degree]:                                    60.002570
 CELL| Angle (a,b), gamma [degree]:                                    60.003223
 CELL| Numerically orthorhombic:                                              NO
 CELL| Periodicity                                                           XYZ

 Number of electrons:                                                         32
 Number of occupied orbitals:                                                 16
 Number of molecular orbitals:                                                16

 Number of orbital functions:                                                 55
 Number of independent orbital functions:                                     55

 Extrapolation method: initial_guess


 SCF WAVEFUNCTION OPTIMIZATION

  Step     Update method      Time    Convergence         Total energy    Change
  ------------------------------------------------------------------------------
     1 Broy./Diag. 0.30E+00    0.2     1.70978180       -66.3723929933 -6.64E+01
     2 Broy./Diag. 0.30E+00    0.3     1.18389873       -66.8133028254 -4.41E-01
     3 Broy./Diag. 0.30E+00    0.3     0.48956408       -66.4186230114  3.95E-01
     4 Broy./Diag. 0.30E+00    0.3     0.08227967       -66.0049303125  4.14E-01
     5 Broy./Diag. 0.30E+00    0.3     0.04869160       -65.9240962028  8.08E-02
     6 Broy./Diag. 0.30E+00    0.3     0.00971948       -65.9651992541 -4.11E-02
     7 Broy./Diag. 0.30E+00    0.3     0.00314850       -65.9846515987 -1.95E-02
     8 Broy./Diag. 0.30E+00    0.3     0.00072783       -65.9876774263 -3.03E-03
     9 Broy./Diag. 0.30E+00    0.3     0.00010156       -65.9875643396  1.13E-04
    10 Broy./Diag. 0.30E+00    0.3     0.00007690       -65.9871795869  3.85E-04

  *** SCF run converged in    10 steps ***


  Electronic density on regular grids:        -31.9999939216        0.0000060784
  Core density on regular grids:               31.9999994889       -0.0000005111
  Total charge density on r-space grids:        0.0000055673
  Total charge density g-space grids:           0.0000055673

  Overlap energy of the core charge distribution:               0.00000000000000
  Self energy of the core charge distribution:               -138.89582544120611
  Core Hamiltonian energy:                                     27.22282601549783
  Hartree energy:                                              56.70231752245930
  Exchange-correlation energy:                                -11.01649768368222

  Total energy:                                               -65.98717958693121

 ENERGY| Total FORCE_EVAL ( QS ) energy [hartree]            -65.987060631503013

 OPT| **************************************************************************
 OPT| Step number                                                              1
 OPT| Optimization method                                                   BFGS
 OPT| Total energy [hartree]                                      -65.9870606315
 OPT| Internal pressure [bar]                                    1404.6482853920
 OPT| Effective energy change [hartree]                            -0.0000007727
 OPT| Predicted energy change [hartree]                            -0.0000003608
 OPT| Scaling factor                                                0.0000000000
 OPT| Step size                                                     0.0003490981
 OPT| Trust radius                                                  0.4724315332
 OPT| Decrease in energy                                                     YES
 OPT| Used time [s]                                                        3.953
 OPT|
 OPT| Maximum step size                                             0.0003490981
 OPT| Convergence limit for maximum step size                       0.0000100000
 OPT| Maximum step size is converged                                          NO
 OPT|
 OPT| RMS step size                                                 0.0002002184
 OPT| Convergence limit for RMS step size                           0.0000100000
 OPT| RMS step size is converged                                              NO
 OPT|
 OPT| Maximum gradient                                              0.0003465139
 OPT| Convergence limit for maximum gradient                        0.0000100000
 OPT| Maximum gradient is converged                                           NO
 OPT|
 OPT| RMS gradient                                                  0.0001978467
 OPT| Convergence limit for RMS gradient                            0.0000500000
 OPT| RMS gradient is converged                                               NO
 OPT|
 OPT| Pressure deviation [bar]                                   1304.6482853920
 OPT| Pressure tolerance [bar]                                      1.0000000000
 OPT| Pressure is converged                                                   NO
 OPT| **************************************************************************
 OPT| Estimated peak process memory after this step [MiB]                    257

 --------------------------
 OPTIMIZATION STEP:      2
 --------------------------

 CELL| Volume [angstrom^3]:                                           206.433328
 CELL| Vector a [angstrom]:      -0.015     4.675     4.675   |a| =     6.612005
 CELL| Vector b [angstrom]:       4.691    -0.015     4.675   |b| =     6.623097
 CELL| Vector c [angstrom]:       4.691     4.691    -0.015   |c| =     6.634098
 CELL| Angle (b,c), alpha [degree]:                                    60.160315
 CELL| Angle (a,c), beta  [degree]:                                    60.216124
 CELL| Angle (a,b), gamma [degree]:                                    60.271789
 CELL| Numerically orthorhombic:                                              NO
 CELL| Periodicity                                                           XYZ

 Number of electrons:                                                         32
 Number of occupied orbitals:                                                 16
 Number of molecular orbitals:                                                16

 Number of orbital functions:                                                 55
 Number of independent orbital functions:                                     55

 Extrapolation method: initial_guess


 SCF WAVEFUNCTION OPTIMIZATION

  Step     Update method      Time    Convergence         Total energy    Change
  ------------------------------------------------------------------------------
     1 Broy./Diag. 0.30E+00    0.2     1.63141435       -66.3827794455 -6.64E+01
     2 Broy./Diag. 0.30E+00    0.3     1.13722789       -66.8277821001 -4.45E-01
     3 Broy./Diag. 0.30E+00    0.3     0.46329077       -66.4303378567  3.97E-01
     4 Broy./Diag. 0.30E+00    0.3     0.08306886       -66.0122579325  4.18E-01
     5 Broy./Diag. 0.30E+00    0.3     0.04840009       -65.9280703666  8.42E-02
     6 Broy./Diag. 0.30E+00    0.3     0.00854512       -65.9648153844 -3.67E-02
     7 Broy./Diag. 0.30E+00    0.3     0.00304171       -65.9824593086 -1.76E-02
     8 Broy./Diag. 0.30E+00    0.3     0.00089692       -65.9870815635 -4.62E-03
     9 Broy./Diag. 0.30E+00    0.3     0.00014753       -65.9876081984 -5.27E-04
    10 Broy./Diag. 0.30E+00    0.3     0.00014106       -65.9872386359  3.70E-04
    11 Broy./Diag. 0.30E+00    0.3     0.00001183       -65.9871209062  1.18E-04

  *** SCF run converged in    11 steps ***


  Electronic density on regular grids:        -31.9999984395        0.0000015605
  Core density on regular grids:               31.9999994865       -0.0000005135
  Total charge density on r-space grids:        0.0000010469
  Total charge density g-space grids:           0.0000010469

  Overlap energy of the core charge distribution:               0.00000000000000
  Self energy of the core charge distribution:               -138.89582544120611
  Core Hamiltonian energy:                                     27.21193267256829
  Hartree energy:                                              56.70806459619662
  Exchange-correlation energy:                                -11.01129273375124

  Total energy:                                               -65.98712090619244

 ENERGY| Total FORCE_EVAL ( QS ) energy [hartree]            -65.987094756673287

 OPT| **************************************************************************
 OPT| Step number                                                              2
 OPT| Optimization method                                                   BFGS
 OPT| Total energy [hartree]                                      -65.9870947567
 OPT| Internal pressure [bar]                                     479.4033898080
 OPT| Effective energy change [hartree]                            -0.0000341252
 OPT| Predicted energy change [hartree]                            -0.0000297562
 OPT| Scaling factor                                                0.0000000000
 OPT| Step size                                                     0.0292681961
 OPT| Trust radius                                                  0.4724315332
 OPT| Decrease in energy                                                     YES
 OPT| Used time [s]                                                        4.179
 OPT|
 OPT| Maximum step size                                             0.0292681961
 OPT| Convergence limit for maximum step size                       0.0000100000
 OPT| Maximum step size is converged                                          NO
 OPT|
 OPT| RMS step size                                                 0.0167111462
 OPT| Convergence limit for RMS step size                           0.0000100000
 OPT| RMS step size is converged                                              NO
 OPT|
 OPT| Maximum gradient                                              0.0001333378
 OPT| Convergence limit for maximum gradient                        0.0000100000
 OPT| Maximum gradient is converged                                           NO
 OPT|
 OPT| RMS gradient                                                  0.0000589920
 OPT| Convergence limit for RMS gradient                            0.0000500000
 OPT| RMS gradient is converged                                               NO
 OPT|
 OPT| Pressure deviation [bar]                                    379.4033898080
 OPT| Pressure tolerance [bar]                                      1.0000000000
 OPT| Pressure is converged                                                   NO
 OPT| **************************************************************************
 OPT| Estimated peak process memory after this step [MiB]                    259

 --------------------------
 OPTIMIZATION STEP:      3
 --------------------------

 CELL| Volume [angstrom^3]:                                           206.453668
 CELL| Vector a [angstrom]:      -0.015     4.675     4.675   |a| =     6.612005
 CELL| Vector b [angstrom]:       4.691    -0.015     4.675   |b| =     6.623259
 CELL| Vector c [angstrom]:       4.691     4.691    -0.015   |c| =     6.634343
 CELL| Angle (b,c), alpha [degree]:                                    60.160970
 CELL| Angle (a,c), beta  [degree]:                                    60.217837
 CELL| Angle (a,b), gamma [degree]:                                    60.274369
 CELL| Numerically orthorhombic:                                              NO
 CELL| Periodicity                                                           XYZ

 Number of electrons:                                                         32
 Number of occupied orbitals:                                                 16
 Number of molecular orbitals:                                                16

 Number of orbital functions:                                                 55
 Number of independent orbital functions:                                     55

 Extrapolation method: initial_guess


 SCF WAVEFUNCTION OPTIMIZATION

  Step     Update method      Time    Convergence         Total energy    Change
  ------------------------------------------------------------------------------
     1 Broy./Diag. 0.30E+00    0.2     0.00015463       -65.9870864996 -6.60E+01
     2 Broy./Diag. 0.30E+00    0.3     0.00005849       -65.9872097613 -1.23E-04

  *** SCF run converged in     2 steps ***


  Electronic density on regular grids:        -32.0001581172       -0.0001581172
  Core density on regular grids:               31.9999994865       -0.0000005135
  Total charge density on r-space grids:       -0.0001586307
  Total charge density g-space grids:          -0.0001586307

  Overlap energy of the core charge distribution:               0.00000000000000
  Self energy of the core charge distribution:               -138.89582544120611
  Core Hamiltonian energy:                                     27.21178954035195
  Hartree energy:                                              56.70812051035245
  Exchange-correlation energy:                                -11.01129437080036

  Total energy:                                               -65.98720976130207

 ENERGY| Total FORCE_EVAL ( QS ) energy [hartree]            -65.987094849842265

 OPT| **************************************************************************
 OPT| Step number                                                              3
 OPT| Optimization method                                                   BFGS
 OPT| Total energy [hartree]                                      -65.9870948498
 OPT| Internal pressure [bar]                                     471.9627182549
 OPT| Effective energy change [hartree]                            -0.0000000932
 OPT| Predicted energy change [hartree]                            -0.0000000343
 OPT| Scaling factor                                                0.0000000000
 OPT| Step size                                                     0.0004314728
 OPT| Trust radius                                                  0.4724315332
 OPT| Decrease in energy                                                     YES
 OPT| Used time [s]                                                        1.378
 OPT|
 OPT| Maximum step size                                             0.0004314728
 OPT| Convergence limit for maximum step size                       0.0000100000
 OPT| Maximum step size is converged                                          NO
 OPT|
 OPT| RMS step size                                                 0.0001814364
 OPT| Convergence limit for RMS step size                           0.0000100000
 OPT| RMS step size is converged                                              NO
 OPT|
 OPT| Maximum gradient                                              0.0001312854
 OPT| Convergence limit for maximum gradient                        0.0000100000
 OPT| Maximum gradient is converged                                           NO
 OPT|
 OPT| RMS gradient                                                  0.0000589069
 OPT| Convergence limit for RMS gradient                            0.0000500000
 OPT| RMS gradient is converged                                               NO
 OPT|
 OPT| Pressure deviation [bar]                                    371.9627182549
 OPT| Pressure tolerance [bar]                                      1.0000000000
 OPT| Pressure is converged                                                   NO
 OPT| **************************************************************************
 OPT| Estimated peak process memory after this step [MiB]                    259

 *** MAXIMUM NUMBER OF OPTIMIZATION STEPS REACHED ***
 ***        EXITING GEOMETRY OPTIMIZATION         ***

 -------------------------------------------------------------------------------
 -                                                                             -
 -                                DBCSR STATISTICS                             -
 -                                                                             -
 -------------------------------------------------------------------------------
 COUNTER                                    TOTAL       BLAS       SMM       ACC
 flops inhomo. stacks                           0       0.0%      0.0%      0.0%
 flops total                         0.000000E+00       0.0%      0.0%      0.0%
 flops max/rank                      0.000000E+00       0.0%      0.0%      0.0%
 matmuls inhomo. stacks                         0       0.0%      0.0%      0.0%
 matmuls total                                  0       0.0%      0.0%      0.0%
 number of processed stacks                     0       0.0%      0.0%      0.0%
 average stack size                                     0.0       0.0       0.0
 marketing flops                     0.000000E+00
 -------------------------------------------------------------------------------
 -                                                                             -
 -                      DBCSR MESSAGE PASSING PERFORMANCE                      -
 -                                                                             -
 -------------------------------------------------------------------------------
 ROUTINE             CALLS      AVE VOLUME [Bytes]
 MP_Bcast                1                     12.
 MP_Allreduce        17516                      8.
 MP_Alltoall        104359                   9395.
 -------------------------------------------------------------------------------

 -------------------------------------------------------------------------------
 -                                                                             -
 -                                DBM STATISTICS                               -
 -                                                                             -
 -------------------------------------------------------------------------------
    M  x    N  x    K                                          COUNT     PERCENT
 -------------------------------------------------------------------------------

 -------------------------------------------------------------------------------
 -                                                                             -
 -                                GRID STATISTICS                              -
 -                                                                             -
 -------------------------------------------------------------------------------
 LP    KERNEL             BACKEND                              COUNT     PERCENT
 4     collocate general  CPU                                 191327      50.00%
 4     integrate general  CPU                                 170689      44.60%
 7     integrate general  CPU                                  20638       5.39%
 0     collocate general  CPU                                     16       0.00%
 3     integrate general  CPU                                     16       0.00%
 -------------------------------------------------------------------------------

 MEMORY| Estimated peak process memory [MiB]                                 259

 -------------------------------------------------------------------------------
 -                                                                             -
 -                         MESSAGE PASSING PERFORMANCE                         -
 -                                                                             -
 -------------------------------------------------------------------------------

 ROUTINE             CALLS      AVE VOLUME [Bytes]
 MP_Group               17
 MP_Bcast            41842                  13788.
 MP_Allreduce         9033                     56.
 MP_Sync               167
 MP_Alltoall           822                1973384.
 MP_SendRecv          7144                  18201.
 MP_ISendRecv         7144                  18201.
 MP_Wait             34072
 MP_comm_split           5
 MP_ISend            30866                   3459.
 MP_IRecv            45810                   1408.
 -------------------------------------------------------------------------------


 -------------------------------------------------------------------------------
 -                                                                             -
 -                           R E F E R E N C E S                               -
 -                                                                             -
 -------------------------------------------------------------------------------
 
 CP2K version 2025.1, the CP2K developers group (2025).
 CP2K is freely available from https://www.cp2k.org/ .
 
 T. D. Kuehne, M. Iannuzzi, M. Del Ben, V. V. Rybkin, P. Seewald, F. Stein, T. 
 Laino, R. Z. Khaliullin, O. Schuett, F. Schiffmann, D. Golze, J. Wilhelm, S. 
 Chulkov, M. H. Bani-Hashemian, V. Weber, U. Borstnik, M. Taillefumier, A. S. 
 Jakobovits, A. Lazzaro, H. Pabst, T. Mueller, R. Schade, M. Guidon, S. 
 Andermatt, N. Holmberg, G. K. Schenter, A. Hehn, A. Bussy, F. Belleflamme, G. 
 Tabacchi, A. Gloess, M. Lass, I. Bethune, C. J. Mundy, C. Plessl, M. Watkins, 
 J. VandeVondele, M. Krack, J. Hutter.
 J. Chem. Phys. 152, 194103 (2020).
 CP2K: An electronic structure and molecular dynamics software package - 
 Quickstep: Efficient and accurate electronic structure calculations.
 https://doi.org/10.1063/5.0007045

 A. Togo, I. Tanaka.
 arXiv, 1808.01590 (2018).
 Spglib : a software library for crystal symmetry search.

 O. Schuett, P. Messmer, J. Hutter, J. VandeVondele.
 Electronic Structure Calculations on Graphics Processing Units, 173-190 (2016).
 GPU-Accelerated Sparse Matrix-Matrix Multiplication for Linear Scaling Density 
 Functional Theory.
 https://doi.org/10.1002/9781118670712.ch8

 A. Heinecke, G. Henry, M. Hutchinson, H. Pabst.
 Proceedings of Intl. Supercomputing Conference, 981-991 (2016).
 LIBXSMM: Accelerating Small Matrix Multiplications by Runtime Code Generation.
 https://doi.org/10.1109/SC.2016.83

 J. Hutter, M. Iannuzzi, F. Schiffmann, J. VandeVondele.
 WIREs Comput Mol Sci. 4, 15-25 (2014).
 CP2K: atomistic simulations of condensed matter systems.
 https://doi.org/10.1002/wcms.1159

 U. Borstnik, J. VandeVondele, V. Weber, J. Hutter.
 Parallel Comput. 40, 47-58 (2014).
 Sparse matrix multiplication: The distributed block-compressed sparse row 
 library.
 https://doi.org/10.1016/j.parco.2014.03.012

 J. VandeVondele, J. Hutter.
 J. Chem. Phys. 127, 114105 (2007).
 Gaussian basis sets for accurate calculations on molecular systems in gas and 
 condensed phases.
 https://doi.org/10.1063/1.2770708

 J. VandeVondele, M. Krack, F. Mohamed, M. Parrinello, T. Chassaing, J. Hutter.
 Comput. Phys. Commun. 167, 103-128 (2005).
 QUICKSTEP: Fast and accurate density functional calculations using a mixed 
 Gaussian and plane waves approach.
 https://doi.org/10.1016/j.cpc.2004.12.014

 M. Krack.
 Theor. Chem. Acc. 114, 145-152 (2005).
 Pseudopotentials for H to Kr optimized for gradient-corrected 
 exchange-correlation functionals.
 https://doi.org/10.1007/s00214-005-0655-y

 M. Frigo, S. G. Johnson.
 Proc. IEEE 93, 216-231 (2005).
 The design and implementation of FFTW3.
 https://doi.org/10.1109/JPROC.2004.840301

 C. Hartwigsen, S. Goedecker, J. Hutter.
 Phys. Rev. B 58, 3641-3662 (1998).
 Relativistic separable dual-space Gaussian pseudopotentials from H to Rn.
 https://doi.org/10.1103/PhysRevB.58.3641

 G. Lippert, J. Hutter, M. Parrinello.
 Mol. Phys. 92, 477-487 (1997).
 A hybrid Gaussian and plane wave density functional scheme.
 https://doi.org/10.1080/002689797170220

 S. Goedecker, M. Teter, J. Hutter.
 Phys. Rev. B 54, 1703-1710 (1996).
 Separable dual-space Gaussian pseudopotentials.
 https://doi.org/10.1103/PhysRevB.54.1703

 J. P. Perdew, K. Burke, M. Ernzerhof.
 Phys. Rev. Lett. 77, 3865-3868 (1996).
 Generalized gradient approximation made simple.
 https://doi.org/10.1103/PhysRevLett.77.3865


 -------------------------------------------------------------------------------
 -                                                                             -
 -                                T I M I N G                                  -
 -                                                                             -
 -------------------------------------------------------------------------------
 SUBROUTINE                       CALLS  ASD         SELF TIME        TOTAL TIME
                                MAXIMUM       AVERAGE  MAXIMUM  AVERAGE  MAXIMUM
 CP2K                                 1  1.0    0.057    0.060   13.803   13.804
 cp_cell_opt                          1  2.0    0.008    0.008   13.604   13.605
 geoopt_bfgs                          1  3.0    0.012    0.013   13.597   13.598
 cp_eval_at                           4  4.0    0.003    0.004   13.521   13.521
 qs_forces                            4  5.0    0.003    0.004   13.516   13.517
 qs_energies                          4  6.0    0.007    0.008   12.063   12.063
 scf_env_do_scf                       4  7.0    0.001    0.001   11.125   11.127
 scf_env_do_scf_inner_loop           33  8.0    0.007    0.009   11.124   11.126
 qs_scf_new_mos_kp                   33  9.0    0.000    0.000    6.334    6.637
 do_general_diag_kp                  33 10.0    0.014    0.016    6.334    6.637
 mp_alltoall_i22                  17591 12.7    4.539    4.966    4.539    4.966
 rebuild_ks_matrix                   37  9.7    0.000    0.001    0.824    4.931
 qs_ks_build_kohn_sham_matrix        37 10.7    0.013    0.015    0.824    4.931
 dbcsr_desymmetrize_deep           9389 11.4    0.082    0.092    4.323    4.682
 sum_up_and_integrate                37 11.7    0.000    0.001    0.574    4.673
 integrate_v_rspace                  37 12.7    0.002    0.008    0.573    4.673
 grid_integrate_task_list            37 13.7    0.388    4.488    0.388    4.488
 qs_ks_update_qs_env                 33  9.0    0.000    0.000    0.853    4.084
 transfer_rs2pw                     152 11.9    0.001    0.001    3.315    3.629
 mp_sendrecv_dv                    7144 13.9    3.286    3.600    3.286    3.600
 transfer_rs2pw_100                  41 12.8    0.019    0.020    3.276    3.592
 qs_rho_update_rho_low               37  9.0    0.000    0.000    3.585    3.588
 calculate_rho_elec                  37 10.0    0.002    0.007    3.585    3.588
 density_rs2pw                       37 11.0    0.001    0.002    3.260    3.555
 grid_collocate_task_list            37 11.0    0.320    3.385    0.320    3.385
 copy_dbcsr_to_fm                  5165 10.8    0.028    0.030    1.535    1.625
 dbcsr_complete_redistribute       8202 12.1    0.134    0.216    1.535    1.581
 qs_ks_update_qs_env_forces           4  6.0    0.000    0.000    0.165    1.041
 mp_sum_dm                          240  6.5    0.918    1.003    0.918    1.003
 kpoint_density_transform            37 10.7    0.009    0.010    0.720    0.727
 copy_fm_to_dbcsr                  3037 11.5    0.009    0.010    0.566    0.600
 init_scf_run                         4  7.0    0.000    0.000    0.578    0.581
 scf_env_initial_rho_setup            4  8.0    0.000    0.001    0.578    0.581
 mp_sum_d                         18216 12.4    0.507    0.569    0.507    0.569
 write_kpoints_restart               33  9.0    0.004    0.055    0.550    0.553
 cp_fm_start_copy_general          6592 11.2    0.037    0.150    0.507    0.514
 rskp_transform                    2112 11.0    0.039    0.490    0.039    0.490
 mp_cart_sub                      10344 12.8    0.469    0.471    0.469    0.471
 build_core_hamiltonian_matrix_       4  6.0    0.002    0.003    0.092    0.391
 calculate_ecore_overlap              8  7.0    0.000    0.000    0.314    0.376
 mp_allgather_i                   13184 12.2    0.276    0.293    0.276    0.293
 -------------------------------------------------------------------------------

 The number of warnings for this run is : 1
 
 -------------------------------------------------------------------------------
  **** **** ******  **  PROGRAM ENDED AT                 2025-02-11 08:15:53.313
 ***** ** ***  *** **   PROGRAM RAN ON                                     c0303
 **    ****   ******    PROGRAM RAN BY                                    u12591
 ***** **    ** ** **   PROGRAM PROCESS ID                               2299202
  **** **  *******  **  PROGRAM STOPPED IN /mnt/lustre-grete/usr/u12591/cp2k_par
                                           ser_tests/cp2k-2025.1/cell_opt_max_st
                                           eps_low
