       4
 i =        1, E =       -65.9870606315
 Cs         2.3377262988        2.3376801153        2.3376339318
 Cs         7.0132237807        7.0130852294        7.0129466781
 Cs         4.6754750397        4.6753826723        4.6752903050
 Sb        -0.0000000000        0.0000000000        0.0000000000
       4
 i =        2, E =       -65.9870947567
 Cs         2.3406887992        2.3367908297        2.3329099887
 Cs         7.0260619661        7.0142877368        7.0025699039
 Cs         4.6833747121        4.6755386132        4.6677399897
 Sb         0.0000005658        0.0000005655       -0.0000000013
       4
 i =        3, E =       -65.9870948498
 Cs         2.3406967301        2.3367610942        2.3328626329
 Cs         7.0263300485        7.0143651970        7.0025172708
 Cs         4.6835127173        4.6755624739        4.6676900013
 Sb         0.0000005665        0.0000005664       -0.0000000151
