64   
1    

1    
  0.0100000000000000   0.0000000000000000   0.0000000000000000
  -0.0027012628    0.0000000000   -0.0000000000
   0.0000024772    0.0000000000   -0.0000000000
   0.0000092172    0.0000000000   -0.0000000000
  -0.0000011328    0.0000000000   -0.0000000000
   0.0000092172    0.0000000000   -0.0000000000
  -0.0000011328    0.0000000000   -0.0000000000
  -0.0000803228    0.0000000000   -0.0000000000
   0.0000039772    0.0000000000   -0.0000000000
  -0.0000873128    0.0000204300    0.0000204300
  -0.0000007528    0.0000016500    0.0000016500
  -0.0000870828    0.0000201700   -0.0000201700
  -0.0000007028    0.0000016600   -0.0000016600
  -0.0000870828   -0.0000201700    0.0000201700
  -0.0000007028   -0.0000016600    0.0000016600
  -0.0000873128   -0.0000204300   -0.0000204300
  -0.0000007528   -0.0000016500   -0.0000016500
   0.0000384172   -0.0000198500    0.0000379900
   0.0000387372   -0.0000200900   -0.0000382500
   0.0000066872   -0.0000016500   -0.0000124700
   0.0000066872   -0.0000016500    0.0000124400
   0.0000384172    0.0000198500   -0.0000379900
   0.0000387372    0.0000200900    0.0000382500
   0.0000066872    0.0000016500    0.0000124700
   0.0000066872    0.0000016500   -0.0000124400
   0.0000384172    0.0000379900   -0.0000198500
   0.0000387372   -0.0000382500   -0.0000200900
   0.0000384172   -0.0000379900    0.0000198500
   0.0000387372    0.0000382500    0.0000200900
   0.0000066872   -0.0000124700   -0.0000016500
   0.0000066872    0.0000124400   -0.0000016500
   0.0000066872    0.0000124700    0.0000016500
   0.0000066872   -0.0000124400    0.0000016500
  -0.0000032928    0.0000049000    0.0000049000
   0.0000427672    0.0000046100    0.0000046100
   0.0000046172    0.0000045900    0.0000042000
  -0.0000097328    0.0000079800    0.0000061100
   0.0000046172    0.0000042000    0.0000045900
  -0.0000097328    0.0000061100    0.0000079800
  -0.0000005428    0.0000060700    0.0000060700
   0.0006612772    0.0004697300    0.0004697300
  -0.0000005428   -0.0000060700   -0.0000060700
   0.0006612772   -0.0004697300   -0.0004697300
   0.0000046172   -0.0000042000   -0.0000045900
  -0.0000097328   -0.0000061100   -0.0000079800
   0.0000046172   -0.0000045900   -0.0000042000
  -0.0000097328   -0.0000079800   -0.0000061100
  -0.0000032928   -0.0000049000   -0.0000049000
   0.0000427672   -0.0000046100   -0.0000046100
  -0.0000096328   -0.0000060200    0.0000080600
   0.0000047172   -0.0000042800    0.0000047100
   0.0006553072   -0.0004577800    0.0004577800
  -0.0000005028   -0.0000060300    0.0000060300
   0.0000426172   -0.0000045800    0.0000045800
  -0.0000032928   -0.0000048800    0.0000048800
  -0.0000096328   -0.0000080600    0.0000060200
   0.0000047172   -0.0000047100    0.0000042800
  -0.0000096328    0.0000080600   -0.0000060200
   0.0000047172    0.0000047100   -0.0000042800
   0.0000426172    0.0000045800   -0.0000045800
  -0.0000032928    0.0000048800   -0.0000048800
   0.0006553072    0.0004577800   -0.0004577800
  -0.0000005028    0.0000060300   -0.0000060300
  -0.0000096328    0.0000060200   -0.0000080600
   0.0000047172    0.0000042800   -0.0000047100
