64   
1    

1    
  0.0100000000000000   0.0000000000000000   0.0000000000000000
  -0.0025296959    0.0000000000   -0.0000000000
   0.0000023041    0.0000000000   -0.0000000000
   0.0000091341    0.0000000000   -0.0000000000
  -0.0000016159    0.0000000000   -0.0000000000
   0.0000091341    0.0000000000   -0.0000000000
  -0.0000016159    0.0000000000   -0.0000000000
  -0.0000794259    0.0000000000   -0.0000000000
   0.0000037741    0.0000000000   -0.0000000000
  -0.0000860159    0.0000195800    0.0000195800
  -0.0000005659    0.0000015200    0.0000015200
  -0.0000857659    0.0000193400   -0.0000193400
  -0.0000005059    0.0000015400   -0.0000015400
  -0.0000857659   -0.0000193400    0.0000193400
  -0.0000005059   -0.0000015400    0.0000015400
  -0.0000860159   -0.0000195800   -0.0000195800
  -0.0000005659   -0.0000015200   -0.0000015200
   0.0000361041   -0.0000190100    0.0000355900
   0.0000364241   -0.0000192400   -0.0000358600
   0.0000063541   -0.0000015300   -0.0000124600
   0.0000063641   -0.0000015200    0.0000124300
   0.0000361041    0.0000190100   -0.0000355900
   0.0000364241    0.0000192400    0.0000358600
   0.0000063541    0.0000015300    0.0000124600
   0.0000063641    0.0000015200   -0.0000124300
   0.0000361041    0.0000355900   -0.0000190100
   0.0000364241   -0.0000358600   -0.0000192400
   0.0000361041   -0.0000355900    0.0000190100
   0.0000364241    0.0000358600    0.0000192400
   0.0000063541   -0.0000124600   -0.0000015300
   0.0000063641    0.0000124300   -0.0000015200
   0.0000063541    0.0000124600    0.0000015300
   0.0000063641   -0.0000124300    0.0000015200
  -0.0000032359    0.0000048700    0.0000048700
   0.0000427841    0.0000041200    0.0000041200
   0.0000042341    0.0000041000    0.0000035500
  -0.0000093759    0.0000081800    0.0000059000
   0.0000042341    0.0000035500    0.0000041000
  -0.0000093759    0.0000059000    0.0000081800
  -0.0000007659    0.0000058600    0.0000058600
   0.0006224841    0.0004173800    0.0004173800
  -0.0000007659   -0.0000058600   -0.0000058600
   0.0006224841   -0.0004173800   -0.0004173800
   0.0000042341   -0.0000035500   -0.0000041000
  -0.0000093759   -0.0000059000   -0.0000081800
   0.0000042341   -0.0000041000   -0.0000035500
  -0.0000093759   -0.0000081800   -0.0000059000
  -0.0000032359   -0.0000048700   -0.0000048700
   0.0000427841   -0.0000041200   -0.0000041200
  -0.0000092859   -0.0000058200    0.0000082500
   0.0000043341   -0.0000036300    0.0000042200
   0.0006166341   -0.0004064200    0.0004064200
  -0.0000007359   -0.0000058300    0.0000058300
   0.0000426241   -0.0000040900    0.0000040900
  -0.0000032359   -0.0000048500    0.0000048500
  -0.0000092859   -0.0000082500    0.0000058200
   0.0000043341   -0.0000042200    0.0000036300
  -0.0000092859    0.0000082500   -0.0000058200
   0.0000043341    0.0000042200   -0.0000036300
   0.0000426241    0.0000040900   -0.0000040900
  -0.0000032359    0.0000048500   -0.0000048500
   0.0006166341    0.0004064200   -0.0004064200
  -0.0000007359    0.0000058300   -0.0000058300
  -0.0000092859    0.0000058200   -0.0000082500
   0.0000043341    0.0000036300   -0.0000042200
