 DBCSR| CPU Multiplication driver                                           XSMM (U)
 DBCSR| Multrec recursion limit                                              512 (U)
 DBCSR| Multiplication stack size                                           1000 (D)
 DBCSR| Maximum elements for images                                    UNLIMITED (U)
 DBCSR| Multiplicative factor virtual images                                   1 (U)
 DBCSR| Use multiplication densification                                       T (D)
 DBCSR| Multiplication size stacks                                             3 (U)
 DBCSR| Use memory pool for CPU allocation                                     F (U)
 DBCSR| Number of 3D layers                                               SINGLE (U)
 DBCSR| Use MPI memory allocation                                              F (U)
 DBCSR| Use RMA algorithm                                                      F (U)
 DBCSR| Use Communication thread                                               T (U)
 DBCSR| Communication thread load                                             87 (D)
 DBCSR| MPI: My process id                                                     0
 DBCSR| MPI: Number of processes                                              96
 DBCSR| OMP: Current number of threads                                         1
 DBCSR| OMP: Max number of threads                                             1
 DBCSR| Split modifier for TAS multiplication algorithm                  1.0E+00 (U)


  **** **** ******  **  PROGRAM STARTED AT               2024-07-07 15:38:10.106
 ***** ** ***  *** **   PROGRAM STARTED ON                                 c0266
 **    ****   ******    PROGRAM STARTED BY                              nichdsas
 ***** **    ** ** **   PROGRAM PROCESS ID                                804639
  **** **  *******  **  PROGRAM STARTED IN /scratch-grete/usr/nichdsas/test_pars
                                           er/cp2k-2024.1/md_nvt_low

 CP2K| version string:                                       CP2K version 2024.1
 CP2K| source code revision number:                                             
 CP2K| cp2kflags: omp libint fftw3 libxc elpa parallel scalapack xsmm spglib sir
 CP2K|            ius libvori libbqb
 CP2K| is freely available from                            https://www.cp2k.org/
 CP2K| Program compiled at                                   2024-05-28 17:35:28
 CP2K| Program compiled on                                                      
 CP2K| Program compiled for                                               x86_64
 CP2K| Data directory path    /sw/rev/24.05/sapphirerapids_opa_rocky8/linux-rock
 CP2K| Input file name                                                 aiida.inp

 GLOBAL| Force Environment number                                              1
 GLOBAL| Basis set file name                                        BASIS_MOLOPT
 GLOBAL| Potential file name                                      GTH_POTENTIALS
 GLOBAL| MM Potential file name                                     MM_POTENTIAL
 GLOBAL| Coordinate file name                                   aiida.coords.xyz
 GLOBAL| Method name                                                        CP2K
 GLOBAL| Project name                                                      aiida
 GLOBAL| Run type                                                             MD
 GLOBAL| FFT library                                                       FFTW3
 GLOBAL| Diagonalization library                                            ELPA
 GLOBAL| DGEMM library                                                      BLAS
 GLOBAL| Minimum number of eigenvectors for ELPA usage                        16
 GLOBAL| Orthonormality check for eigenvectors                          DISABLED
 GLOBAL| Matrix multiplication library                                 ScaLAPACK
 GLOBAL| All-to-all communication in single precision                          F
 GLOBAL| FFTs using library dependent lengths                                  F
 GLOBAL| Grid backend                                                       AUTO
 GLOBAL| Global print level                                                  LOW
 GLOBAL| MPI I/O enabled                                                       T
 GLOBAL| Total number of message passing processes                            96
 GLOBAL| Number of threads for this process                                    1
 GLOBAL| This output is from process                                           0
 GLOBAL| Stack size for threads created by OpenMP (OMP_STACKSIZE)        default
 GLOBAL| CPU model name                           Intel(R) Xeon(R) Platinum 8468
 GLOBAL| CPUID                                                              1003

 MEMORY| system memory details [Kb]
 MEMORY|                        rank 0           min           max       average
 MEMORY| MemTotal            527678176     527678176     527678176     527678176
 MEMORY| MemFree             511773188     511773188     511773188     511773188
 MEMORY| Buffers                  7588          7588          7588          7588
 MEMORY| Cached                3210132       3210132       3210132       3210132
 MEMORY| Slab                  1376344       1376344       1376344       1376344
 MEMORY| SReclaimable           207136        207136        207136        207136
 MEMORY| MemLikelyFree       515198044     515198044     515198044     515198044


 GENERATE|  Preliminary Number of Bonds generated:                             0
 GENERATE|  Achieved consistency in connectivity generation.

 *******************************************************************************
 *******************************************************************************
 **                                                                           **
 **     #####                         ##              ##                      **
 **    ##   ##            ##          ##              ##                      **
 **   ##     ##                       ##            ######                    **
 **   ##     ##  ##   ##  ##   #####  ##  ##   ####   ##    #####    #####    **
 **   ##     ##  ##   ##  ##  ##      ## ##   ##      ##   ##   ##  ##   ##   **
 **   ##  ## ##  ##   ##  ##  ##      ####     ###    ##   ######   ######    **
 **    ##  ###   ##   ##  ##  ##      ## ##      ##   ##   ##       ##        **
 **     #######   #####   ##   #####  ##  ##  ####    ##    #####   ##        **
 **           ##                                                    ##        **
 **                                                                           **
 **                                                ... make the atoms dance   **
 **                                                                           **
 **            Copyright (C) by CP2K developers group (2000-2024)             **
 **                      J. Chem. Phys. 152, 194103 (2020)                    **
 **                                                                           **
 *******************************************************************************


 TOTAL NUMBERS AND MAXIMUM NUMBERS

  Total number of            - Atomic kinds:                                   2
                             - Atoms:                                        192
                             - Shell sets:                                   192
                             - Shells:                                       704
                             - Primitive Cartesian functions:               1344
                             - Cartesian basis functions:                   1536
                             - Spherical basis functions:                   1472

  Maximum angular momentum of- Orbital basis functions:                        2
                             - Local part of the GTH pseudopotential:          2
                             - Non-local part of the GTH pseudopotential:      0


 SCF PARAMETERS         Density guess:                                    ATOMIC
                        --------------------------------------------------------
                        max_scf:                                              30
                        max_scf_history:                                       0
                        max_diis:                                              4
                        --------------------------------------------------------
                        eps_scf:                                        1.00E-05
                        eps_scf_history:                                0.00E+00
                        eps_diis:                                       1.00E-01
                        eps_eigval:                                     1.00E-05
                        --------------------------------------------------------
                        level_shift [a.u.]:                             0.000000
                        --------------------------------------------------------
                        Outer loop SCF in use 
                        No variables optimised in outer loop
                        eps_scf                                         1.00E-06
                        max_scf                                                5
                        No outer loop optimization
                        step_size                                       5.00E-01

 MD_PAR| Molecular dynamics protocol (MD input parameters)
 MD_PAR| Ensemble type                                                       NVT
 MD_PAR| Number of time steps                                                  5
 MD_PAR| Time step [fs]                                                 0.500000
 MD_PAR| Temperature [K]                                              300.000000
 MD_PAR| Temperature tolerance [K]                                      0.000000
 MD_PAR| Print MD information every                                    1 step(s)
 MD_PAR| File type   Print frequency [steps]                          File names
 MD_PAR| Coordinates          1                                  aiida-pos-1.xyz
 MD_PAR| Velocities           1                                  aiida-vel-1.xyz
 MD_PAR| Energies             1                                     aiida-1.ener
 MD_PAR| Dump                20                                  aiida-1.restart

 ROT| Rotational analysis information
 ROT| Principal axes and moments of inertia [a.u.]
 ROT|                           1                   2                   3
 ROT| Eigenvalues      2.05585957588E+08   2.18420756715E+08   2.44815971865E+08
 ROT|      x              0.422535724749     -0.517084350433      0.744370429187
 ROT|      y              0.905625145748      0.208115968654     -0.369500796994
 ROT|      z              0.036147706690      0.830247865477      0.556221021872
 ROT| Number of rotovibrational vectors                                        6

 DOF| Calculation of degrees of freedom
 DOF| Number of atoms                                                        192
 DOF| Number of intramolecular constraints                                     0
 DOF| Number of intermolecular constraints                                     0
 DOF| Invariants (translations + rotations)                                    0
 DOF| Degrees of freedom                                                     576

 DOF| Restraints information
 DOF| Number of intramolecular restraints                                      0
 DOF| Number of intermolecular restraints                                      0

 THERMOSTAT| Thermostat information for PARTICLES
 THERMOSTAT| Type of thermostat                               Nose-Hoover-Chains
 THERMOSTAT| Nose-Hoover-Chain length                                          3
 THERMOSTAT| Nose-Hoover-Chain time constant [fs]                    1000.000000
 THERMOSTAT| Order of Yoshida integrator                                       3
 THERMOSTAT| Number of multiple time steps                                     2
 THERMOSTAT| Initial potential energy                         0.000000000000E+00
 THERMOSTAT| Initial kinetic energy                           0.273612845660E+00
 THERMOSTAT| End of thermostat information for PARTICLES

 MD_VEL| Velocities initialization
 MD_VEL| Initial temperature [K]                                      300.000000
 MD_VEL| COM velocity            -0.0000000000    -0.0000000000     0.0000000000

 Number of electrons:                                                        512
 Number of occupied orbitals:                                                256
 Number of molecular orbitals:                                               256

 Number of orbital functions:                                               1472
 Number of independent orbital functions:                                   1472

 Extrapolation method: initial_guess


 SCF WAVEFUNCTION OPTIMIZATION

  ----------------------------------- OT ---------------------------------------
  Minimizer      : DIIS                : direct inversion
                                         in the iterative subspace
                                         using   7 DIIS vectors
                                         safer DIIS on
  Preconditioner : FULL_SINGLE_INVERSE : inversion of 
                                         H + eS - 2*(Sc)(c^T*H*c+const)(Sc)^T
  Precond_solver : DEFAULT
  stepsize       :    0.08000000                  energy_gap     :    0.08000000
  eps_taylor     :   0.10000E-15                  max_taylor     :             4
  ----------------------------------- OT ---------------------------------------

  Step     Update method      Time    Convergence         Total energy    Change
  ------------------------------------------------------------------------------
     1 OT DIIS     0.80E-01    0.5     0.03061904     -1055.5512986970 -1.06E+03
     2 OT DIIS     0.80E-01    0.5     0.02256020     -1076.3314309456 -2.08E+01
     3 OT DIIS     0.80E-01    0.5     0.01821838     -1086.8221407849 -1.05E+01
     4 OT DIIS     0.80E-01    0.6     0.01177433     -1095.4711931626 -8.65E+00
     5 OT DIIS     0.80E-01    0.5     0.00644009     -1099.7812713300 -4.31E+00
     6 OT DIIS     0.80E-01    0.5     0.00452701     -1101.1091173498 -1.33E+00
     7 OT DIIS     0.80E-01    0.5     0.00360908     -1101.8431257294 -7.34E-01
     8 OT DIIS     0.80E-01    0.5     0.00298303     -1102.3262586453 -4.83E-01
     9 OT DIIS     0.80E-01    0.5     0.00259174     -1102.6375745946 -3.11E-01
    10 OT DIIS     0.80E-01    0.5     0.00199772     -1102.9298747301 -2.92E-01
    11 OT DIIS     0.80E-01    0.5     0.00134874     -1103.1214142309 -1.92E-01
    12 OT DIIS     0.80E-01    0.5     0.00127504     -1103.1645613956 -4.31E-02
    13 OT DIIS     0.80E-01    0.5     0.00080027     -1103.2556407012 -9.11E-02
    14 OT DIIS     0.80E-01    0.5     0.00064034     -1103.2874696235 -3.18E-02
    15 OT DIIS     0.80E-01    0.5     0.00065387     -1103.3000502499 -1.26E-02
    16 OT DIIS     0.80E-01    0.5     0.00037143     -1103.3231718934 -2.31E-02
    17 OT DIIS     0.80E-01    0.5     0.00026864     -1103.3356753174 -1.25E-02
    18 OT DIIS     0.80E-01    0.5     0.00020499     -1103.3417780903 -6.10E-03
    19 OT DIIS     0.80E-01    0.5     0.00016740     -1103.3445739741 -2.80E-03
    20 OT DIIS     0.80E-01    0.5     0.00013800     -1103.3470337044 -2.46E-03
    21 OT DIIS     0.80E-01    0.5     0.00011016     -1103.3489052529 -1.87E-03
    22 OT DIIS     0.80E-01    0.5     0.00009431     -1103.3501559232 -1.25E-03
    23 OT DIIS     0.80E-01    0.5     0.00008287     -1103.3510744192 -9.18E-04
    24 OT DIIS     0.80E-01    0.5     0.00007350     -1103.3518679889 -7.94E-04
    25 OT DIIS     0.80E-01    0.5     0.00006441     -1103.3526346041 -7.67E-04
    26 OT DIIS     0.80E-01    0.5     0.00005767     -1103.3531935413 -5.59E-04
    27 OT DIIS     0.80E-01    0.5     0.00005235     -1103.3536533649 -4.60E-04
    28 OT DIIS     0.80E-01    0.5     0.00004692     -1103.3541019789 -4.49E-04
    29 OT DIIS     0.80E-01    0.5     0.00004252     -1103.3544491190 -3.47E-04
    30 OT DIIS     0.80E-01    0.5     0.00003861     -1103.3547765543 -3.27E-04

  Leaving inner SCF loop after reaching    30 steps.


  Electronic density on regular grids:       -511.9999997253        0.0000002747
  Core density on regular grids:              511.9999984883       -0.0000015117
  Total charge density on r-space grids:       -0.0000012371
  Total charge density g-space grids:          -0.0000012371

  Overlap energy of the core charge distribution:               0.00000237129466
  Self energy of the core charge distribution:              -2838.21791979120962
  Core Hamiltonian energy:                                    827.41529931790478
  Hartree energy:                                            1179.28879418527731
  Exchange-correlation energy:                               -271.59515103688716
  Dispersion energy:                                           -0.24580160066492

  Total energy:                                             -1103.35477655428485

  outer SCF iter =    1 RMS gradient =   0.39E-04 energy =      -1103.3547765543

  ----------------------------------- OT ---------------------------------------
  Minimizer      : DIIS                : direct inversion
                                         in the iterative subspace
                                         using   7 DIIS vectors
                                         safer DIIS on
  Preconditioner : FULL_SINGLE_INVERSE : inversion of 
                                         H + eS - 2*(Sc)(c^T*H*c+const)(Sc)^T
  Precond_solver : DEFAULT
  stepsize       :    0.08000000                  energy_gap     :    0.08000000
  eps_taylor     :   0.10000E-15                  max_taylor     :             4
  ----------------------------------- OT ---------------------------------------

  Step     Update method      Time    Convergence         Total energy    Change
  ------------------------------------------------------------------------------
     1 OT DIIS     0.80E-01    1.1     0.00019120     -1103.3550374637 -2.61E-04
     2 OT DIIS     0.80E-01    0.5     0.00012685     -1103.3559464156 -9.09E-04
     3 OT DIIS     0.80E-01    0.5     0.00003597     -1103.3566822349 -7.36E-04
     4 OT DIIS     0.80E-01    0.5     0.00001561     -1103.3567390932 -5.69E-05
     5 OT DIIS     0.80E-01    0.5     0.00000648     -1103.3567492222 -1.01E-05

  *** SCF run converged in     5 steps ***


  Electronic density on regular grids:       -511.9999997254        0.0000002746
  Core density on regular grids:              511.9999984883       -0.0000015117
  Total charge density on r-space grids:       -0.0000012371
  Total charge density g-space grids:          -0.0000012371

  Overlap energy of the core charge distribution:               0.00000237129466
  Self energy of the core charge distribution:              -2838.21791979120962
  Core Hamiltonian energy:                                    827.41162949707791
  Hartree energy:                                            1179.29090416068493
  Exchange-correlation energy:                               -271.59556385939868
  Dispersion energy:                                           -0.24580160066492

  Total energy:                                             -1103.35674922221574

  outer SCF iter =    2 RMS gradient =   0.65E-05 energy =      -1103.3567492222

  ----------------------------------- OT ---------------------------------------
  Minimizer      : DIIS                : direct inversion
                                         in the iterative subspace
                                         using   7 DIIS vectors
                                         safer DIIS on
  Preconditioner : FULL_SINGLE_INVERSE : inversion of 
                                         H + eS - 2*(Sc)(c^T*H*c+const)(Sc)^T
  Precond_solver : DEFAULT
  stepsize       :    0.08000000                  energy_gap     :    0.08000000
  eps_taylor     :   0.10000E-15                  max_taylor     :             4
  ----------------------------------- OT ---------------------------------------

  Step     Update method      Time    Convergence         Total energy    Change
  ------------------------------------------------------------------------------
     1 OT DIIS     0.80E-01    1.1     0.00000269     -1103.3567510253 -1.80E-06

  *** SCF run converged in     1 steps ***


  Electronic density on regular grids:       -511.9999997254        0.0000002746
  Core density on regular grids:              511.9999984883       -0.0000015117
  Total charge density on r-space grids:       -0.0000012371
  Total charge density g-space grids:          -0.0000012371

  Overlap energy of the core charge distribution:               0.00000237129466
  Self energy of the core charge distribution:              -2838.21791979120962
  Core Hamiltonian energy:                                    827.41205617753076
  Hartree energy:                                            1179.29054790114355
  Exchange-correlation energy:                               -271.59563608343240
  Dispersion energy:                                           -0.24580160066492

  Total energy:                                             -1103.35675102533787

  outer SCF iter =    3 RMS gradient =   0.27E-05 energy =      -1103.3567510253

  ----------------------------------- OT ---------------------------------------
  Minimizer      : DIIS                : direct inversion
                                         in the iterative subspace
                                         using   7 DIIS vectors
                                         safer DIIS on
  Preconditioner : FULL_SINGLE_INVERSE : inversion of 
                                         H + eS - 2*(Sc)(c^T*H*c+const)(Sc)^T
  Precond_solver : DEFAULT
  stepsize       :    0.08000000                  energy_gap     :    0.08000000
  eps_taylor     :   0.10000E-15                  max_taylor     :             4
  ----------------------------------- OT ---------------------------------------

  Step     Update method      Time    Convergence         Total energy    Change
  ------------------------------------------------------------------------------
     1 OT DIIS     0.80E-01    1.6     0.00000189     -1103.3567512086 -1.83E-07

  *** SCF run converged in     1 steps ***


  Electronic density on regular grids:       -511.9999997254        0.0000002746
  Core density on regular grids:              511.9999984883       -0.0000015117
  Total charge density on r-space grids:       -0.0000012371
  Total charge density g-space grids:          -0.0000012371

  Overlap energy of the core charge distribution:               0.00000237129466
  Self energy of the core charge distribution:              -2838.21791979120962
  Core Hamiltonian energy:                                    827.41199496838567
  Hartree energy:                                            1179.29059737840453
  Exchange-correlation energy:                               -271.59562453484716
  Dispersion energy:                                           -0.24580160066492

  Total energy:                                             -1103.35675120863698

  outer SCF iter =    4 RMS gradient =   0.19E-05 energy =      -1103.3567512086

  ----------------------------------- OT ---------------------------------------
  Minimizer      : DIIS                : direct inversion
                                         in the iterative subspace
                                         using   7 DIIS vectors
                                         safer DIIS on
  Preconditioner : FULL_SINGLE_INVERSE : inversion of 
                                         H + eS - 2*(Sc)(c^T*H*c+const)(Sc)^T
  Precond_solver : DEFAULT
  stepsize       :    0.08000000                  energy_gap     :    0.08000000
  eps_taylor     :   0.10000E-15                  max_taylor     :             4
  ----------------------------------- OT ---------------------------------------

  Step     Update method      Time    Convergence         Total energy    Change
  ------------------------------------------------------------------------------
     1 OT DIIS     0.80E-01    2.2     0.00000138     -1103.3567513018 -9.32E-08

  *** SCF run converged in     1 steps ***


  Electronic density on regular grids:       -511.9999997254        0.0000002746
  Core density on regular grids:              511.9999984883       -0.0000015117
  Total charge density on r-space grids:       -0.0000012371
  Total charge density g-space grids:          -0.0000012371

  Overlap energy of the core charge distribution:               0.00000237129466
  Self energy of the core charge distribution:              -2838.21791979120962
  Core Hamiltonian energy:                                    827.41201479617030
  Hartree energy:                                            1179.29058099329745
  Exchange-correlation energy:                               -271.59562807068926
  Dispersion energy:                                           -0.24580160066492

  Total energy:                                             -1103.35675130180152

  outer SCF iter =    5 RMS gradient =   0.14E-05 energy =      -1103.3567513018

  ----------------------------------- OT ---------------------------------------
  Minimizer      : DIIS                : direct inversion
                                         in the iterative subspace
                                         using   7 DIIS vectors
                                         safer DIIS on
  Preconditioner : FULL_SINGLE_INVERSE : inversion of 
                                         H + eS - 2*(Sc)(c^T*H*c+const)(Sc)^T
  Precond_solver : DEFAULT
  stepsize       :    0.08000000                  energy_gap     :    0.08000000
  eps_taylor     :   0.10000E-15                  max_taylor     :             4
  ----------------------------------- OT ---------------------------------------

  Step     Update method      Time    Convergence         Total energy    Change
  ------------------------------------------------------------------------------
     1 OT DIIS     0.80E-01    2.7     0.00000103     -1103.3567513520 -5.02E-08

  *** SCF run converged in     1 steps ***


  Electronic density on regular grids:       -511.9999997254        0.0000002746
  Core density on regular grids:              511.9999984883       -0.0000015117
  Total charge density on r-space grids:       -0.0000012371
  Total charge density g-space grids:          -0.0000012371

  Overlap energy of the core charge distribution:               0.00000237129466
  Self energy of the core charge distribution:              -2838.21791979120962
  Core Hamiltonian energy:                                    827.41201375042829
  Hartree energy:                                            1179.29058160883505
  Exchange-correlation energy:                               -271.59562769067770
  Dispersion energy:                                           -0.24580160066492

  Total energy:                                             -1103.35675135199426

  outer SCF iter =    6 RMS gradient =   0.10E-05 energy =      -1103.3567513520
  outer SCF loop FAILED to converge after    6 iterations or   39 steps


 *** WARNING in qs_scf.F:603 :: SCF run NOT converged ***


 ENERGY| Total FORCE_EVAL ( QS ) energy [a.u.]:            -1103.356751379768866

 MD_INI| MD initialization
 MD_INI| Potential energy [hartree]                          -0.110335675138E+04
 MD_INI| Kinetic energy [hartree]                             0.273612845660E+00
 MD_INI| Temperature [K]                                              300.000000
 MD_INI| Cell volume [bohr^3]                                 1.292889458088E+04
 MD_INI| Cell volume [ang^3]                                  1.915864488000E+03
 MD_INI| Cell lengths [bohr]      2.34703986E+01  2.34703986E+01  2.34703986E+01
 MD_INI| Cell lengths [ang]       1.24200000E+01  1.24200000E+01  1.24200000E+01
 MD_INI| Cell angles [deg]        9.00000000E+01  9.00000000E+01  9.00000000E+01

 Number of electrons:                                                        512
 Number of occupied orbitals:                                                256
 Number of molecular orbitals:                                               256

 Number of orbital functions:                                               1472
 Number of independent orbital functions:                                   1472

 Extrapolation method: ASPC


 SCF WAVEFUNCTION OPTIMIZATION

  ----------------------------------- OT ---------------------------------------
  Minimizer      : DIIS                : direct inversion
                                         in the iterative subspace
                                         using   7 DIIS vectors
                                         safer DIIS on
  Preconditioner : FULL_SINGLE_INVERSE : inversion of 
                                         H + eS - 2*(Sc)(c^T*H*c+const)(Sc)^T
  Precond_solver : DEFAULT
  stepsize       :    0.08000000                  energy_gap     :    0.08000000
  eps_taylor     :   0.10000E-15                  max_taylor     :             4
  ----------------------------------- OT ---------------------------------------

  Step     Update method      Time    Convergence         Total energy    Change
  ------------------------------------------------------------------------------
     1 OT DIIS     0.80E-01    0.4     0.00033611     -1103.3542696410 -1.10E+03
     2 OT DIIS     0.80E-01    0.5     0.00019244     -1103.3568415796 -2.57E-03
     3 OT DIIS     0.80E-01    0.5     0.00008535     -1103.3580749403 -1.23E-03
     4 OT DIIS     0.80E-01    0.5     0.00002900     -1103.3583550397 -2.80E-04
     5 OT DIIS     0.80E-01    0.5     0.00000814     -1103.3583882468 -3.32E-05

  *** SCF run converged in     5 steps ***


  Electronic density on regular grids:       -511.9999997177        0.0000002823
  Core density on regular grids:              511.9999984929       -0.0000015071
  Total charge density on r-space grids:       -0.0000012249
  Total charge density g-space grids:          -0.0000012249

  Overlap energy of the core charge distribution:               0.00000241497652
  Self energy of the core charge distribution:              -2838.21791979120962
  Core Hamiltonian energy:                                    827.51653957197721
  Hartree energy:                                            1179.21541645023103
  Exchange-correlation energy:                               -271.62662055705886
  Dispersion energy:                                           -0.24580633571241

  Total energy:                                             -1103.35838824679581

  outer SCF iter =    1 RMS gradient =   0.81E-05 energy =      -1103.3583882468

  ----------------------------------- OT ---------------------------------------
  Minimizer      : DIIS                : direct inversion
                                         in the iterative subspace
                                         using   7 DIIS vectors
                                         safer DIIS on
  Preconditioner : FULL_SINGLE_INVERSE : inversion of 
                                         H + eS - 2*(Sc)(c^T*H*c+const)(Sc)^T
  Precond_solver : DEFAULT
  stepsize       :    0.08000000                  energy_gap     :    0.08000000
  eps_taylor     :   0.10000E-15                  max_taylor     :             4
  ----------------------------------- OT ---------------------------------------

  Step     Update method      Time    Convergence         Total energy    Change
  ------------------------------------------------------------------------------
     1 OT DIIS     0.80E-01    1.1     0.00000323     -1103.3583905678 -2.32E-06

  *** SCF run converged in     1 steps ***


  Electronic density on regular grids:       -511.9999997177        0.0000002823
  Core density on regular grids:              511.9999984929       -0.0000015071
  Total charge density on r-space grids:       -0.0000012249
  Total charge density g-space grids:          -0.0000012249

  Overlap energy of the core charge distribution:               0.00000241497652
  Self energy of the core charge distribution:              -2838.21791979120962
  Core Hamiltonian energy:                                    827.51500807504726
  Hartree energy:                                            1179.21669665071113
  Exchange-correlation energy:                               -271.62637158165273
  Dispersion energy:                                           -0.24580633571241

  Total energy:                                             -1103.35839056783948

  outer SCF iter =    2 RMS gradient =   0.32E-05 energy =      -1103.3583905678

  ----------------------------------- OT ---------------------------------------
  Minimizer      : DIIS                : direct inversion
                                         in the iterative subspace
                                         using   7 DIIS vectors
                                         safer DIIS on
  Preconditioner : FULL_SINGLE_INVERSE : inversion of 
                                         H + eS - 2*(Sc)(c^T*H*c+const)(Sc)^T
  Precond_solver : DEFAULT
  stepsize       :    0.08000000                  energy_gap     :    0.08000000
  eps_taylor     :   0.10000E-15                  max_taylor     :             4
  ----------------------------------- OT ---------------------------------------

  Step     Update method      Time    Convergence         Total energy    Change
  ------------------------------------------------------------------------------
     1 OT DIIS     0.80E-01    1.6     0.00000203     -1103.3583908183 -2.50E-07

  *** SCF run converged in     1 steps ***


  Electronic density on regular grids:       -511.9999997177        0.0000002823
  Core density on regular grids:              511.9999984929       -0.0000015071
  Total charge density on r-space grids:       -0.0000012249
  Total charge density g-space grids:          -0.0000012249

  Overlap energy of the core charge distribution:               0.00000241497652
  Self energy of the core charge distribution:              -2838.21791979120962
  Core Hamiltonian energy:                                    827.51520099280697
  Hartree energy:                                            1179.21654297477971
  Exchange-correlation energy:                               -271.62641107397025
  Dispersion energy:                                           -0.24580633571241

  Total energy:                                             -1103.35839081832887

  outer SCF iter =    3 RMS gradient =   0.20E-05 energy =      -1103.3583908183

  ----------------------------------- OT ---------------------------------------
  Minimizer      : DIIS                : direct inversion
                                         in the iterative subspace
                                         using   7 DIIS vectors
                                         safer DIIS on
  Preconditioner : FULL_SINGLE_INVERSE : inversion of 
                                         H + eS - 2*(Sc)(c^T*H*c+const)(Sc)^T
  Precond_solver : DEFAULT
  stepsize       :    0.08000000                  energy_gap     :    0.08000000
  eps_taylor     :   0.10000E-15                  max_taylor     :             4
  ----------------------------------- OT ---------------------------------------

  Step     Update method      Time    Convergence         Total energy    Change
  ------------------------------------------------------------------------------
     1 OT DIIS     0.80E-01    2.2     0.00000135     -1103.3583909212 -1.03E-07

  *** SCF run converged in     1 steps ***


  Electronic density on regular grids:       -511.9999997177        0.0000002823
  Core density on regular grids:              511.9999984929       -0.0000015071
  Total charge density on r-space grids:       -0.0000012249
  Total charge density g-space grids:          -0.0000012249

  Overlap energy of the core charge distribution:               0.00000241497652
  Self energy of the core charge distribution:              -2838.21791979120962
  Core Hamiltonian energy:                                    827.51516329938045
  Hartree energy:                                            1179.21657769950480
  Exchange-correlation energy:                               -271.62640820815301
  Dispersion energy:                                           -0.24580633571241

  Total energy:                                             -1103.35839092121296

  outer SCF iter =    4 RMS gradient =   0.13E-05 energy =      -1103.3583909212

  ----------------------------------- OT ---------------------------------------
  Minimizer      : DIIS                : direct inversion
                                         in the iterative subspace
                                         using   7 DIIS vectors
                                         safer DIIS on
  Preconditioner : FULL_SINGLE_INVERSE : inversion of 
                                         H + eS - 2*(Sc)(c^T*H*c+const)(Sc)^T
  Precond_solver : DEFAULT
  stepsize       :    0.08000000                  energy_gap     :    0.08000000
  eps_taylor     :   0.10000E-15                  max_taylor     :             4
  ----------------------------------- OT ---------------------------------------

  Step     Update method      Time    Convergence         Total energy    Change
  ------------------------------------------------------------------------------
     1 OT DIIS     0.80E-01    2.8     0.00000092     -1103.3583909672 -4.60E-08

  *** SCF run converged in     1 steps ***


  Electronic density on regular grids:       -511.9999997177        0.0000002823
  Core density on regular grids:              511.9999984929       -0.0000015071
  Total charge density on r-space grids:       -0.0000012249
  Total charge density g-space grids:          -0.0000012249

  Overlap energy of the core charge distribution:               0.00000241497652
  Self energy of the core charge distribution:              -2838.21791979120962
  Core Hamiltonian energy:                                    827.51514072740599
  Hartree energy:                                            1179.21659944484009
  Exchange-correlation energy:                               -271.62640742751313
  Dispersion energy:                                           -0.24580633571241

  Total energy:                                             -1103.35839096721224

  outer SCF iter =    5 RMS gradient =   0.92E-06 energy =      -1103.3583909672
  outer SCF loop converged in   5 iterations or    9 steps


 ENERGY| Total FORCE_EVAL ( QS ) energy [a.u.]:            -1103.358390988604015

 MD| ***************************************************************************
 MD| Step number                                                               1
 MD| Time [fs]                                                          0.500000
 MD| Conserved quantity [hartree]                            -0.110280949561E+04
 MD| ---------------------------------------------------------------------------
 MD|                                          Instantaneous             Averages
 MD| CPU time per MD step [s]                     28.460611            28.460611
 MD| Energy drift per atom [K]           0.494770287318E-01   0.000000000000E+00
 MD| Potential energy [hartree]         -0.110335839099E+04  -0.110335839099E+04
 MD| Kinetic energy [hartree]            0.275296282128E+00   0.275296282128E+00
 MD| Temperature [K]                             301.845787           301.845787
 MD| ***************************************************************************
 MD| Estimated peak process memory after this step [MiB]                     408

 Number of electrons:                                                        512
 Number of occupied orbitals:                                                256
 Number of molecular orbitals:                                               256

 Number of orbital functions:                                               1472
 Number of independent orbital functions:                                   1472

 Extrapolation method: ASPC


 SCF WAVEFUNCTION OPTIMIZATION

  ----------------------------------- OT ---------------------------------------
  Minimizer      : DIIS                : direct inversion
                                         in the iterative subspace
                                         using   7 DIIS vectors
                                         safer DIIS on
  Preconditioner : FULL_SINGLE_INVERSE : inversion of 
                                         H + eS - 2*(Sc)(c^T*H*c+const)(Sc)^T
  Precond_solver : DEFAULT
  stepsize       :    0.08000000                  energy_gap     :    0.08000000
  eps_taylor     :   0.10000E-15                  max_taylor     :             4
  ----------------------------------- OT ---------------------------------------

  Step     Update method      Time    Convergence         Total energy    Change
  ------------------------------------------------------------------------------
     1 OT DIIS     0.80E-01    0.4     0.00009536     -1103.3611434765 -1.10E+03
     2 OT DIIS     0.80E-01    0.5     0.00005051     -1103.3613416100 -1.98E-04
     3 OT DIIS     0.80E-01    0.5     0.00002324     -1103.3614179611 -7.64E-05
     4 OT DIIS     0.80E-01    0.5     0.00000792     -1103.3614374796 -1.95E-05

  *** SCF run converged in     4 steps ***


  Electronic density on regular grids:       -511.9999997098        0.0000002902
  Core density on regular grids:              511.9999984885       -0.0000015115
  Total charge density on r-space grids:       -0.0000012213
  Total charge density g-space grids:          -0.0000012213

  Overlap energy of the core charge distribution:               0.00000239769479
  Self energy of the core charge distribution:              -2838.21791979120962
  Core Hamiltonian energy:                                    827.46945409542036
  Hartree energy:                                            1179.24688911662452
  Exchange-correlation energy:                               -271.61406650632301
  Dispersion energy:                                           -0.24579679182166

  Total energy:                                             -1103.36143747961455

  outer SCF iter =    1 RMS gradient =   0.79E-05 energy =      -1103.3614374796

  ----------------------------------- OT ---------------------------------------
  Minimizer      : DIIS                : direct inversion
                                         in the iterative subspace
                                         using   7 DIIS vectors
                                         safer DIIS on
  Preconditioner : FULL_SINGLE_INVERSE : inversion of 
                                         H + eS - 2*(Sc)(c^T*H*c+const)(Sc)^T
  Precond_solver : DEFAULT
  stepsize       :    0.08000000                  energy_gap     :    0.08000000
  eps_taylor     :   0.10000E-15                  max_taylor     :             4
  ----------------------------------- OT ---------------------------------------

  Step     Update method      Time    Convergence         Total energy    Change
  ------------------------------------------------------------------------------
     1 OT DIIS     0.80E-01    1.1     0.00000231     -1103.3614399532 -2.47E-06

  *** SCF run converged in     1 steps ***


  Electronic density on regular grids:       -511.9999997098        0.0000002902
  Core density on regular grids:              511.9999984885       -0.0000015115
  Total charge density on r-space grids:       -0.0000012213
  Total charge density g-space grids:          -0.0000012213

  Overlap energy of the core charge distribution:               0.00000239769479
  Self energy of the core charge distribution:              -2838.21791979120962
  Core Hamiltonian energy:                                    827.46998598187872
  Hartree energy:                                            1179.24632999679670
  Exchange-correlation energy:                               -271.61404174658861
  Dispersion energy:                                           -0.24579679182166

  Total energy:                                             -1103.36143995324937

  outer SCF iter =    2 RMS gradient =   0.23E-05 energy =      -1103.3614399532

  ----------------------------------- OT ---------------------------------------
  Minimizer      : DIIS                : direct inversion
                                         in the iterative subspace
                                         using   7 DIIS vectors
                                         safer DIIS on
  Preconditioner : FULL_SINGLE_INVERSE : inversion of 
                                         H + eS - 2*(Sc)(c^T*H*c+const)(Sc)^T
  Precond_solver : DEFAULT
  stepsize       :    0.08000000                  energy_gap     :    0.08000000
  eps_taylor     :   0.10000E-15                  max_taylor     :             4
  ----------------------------------- OT ---------------------------------------

  Step     Update method      Time    Convergence         Total energy    Change
  ------------------------------------------------------------------------------
     1 OT DIIS     0.80E-01    1.6     0.00000144     -1103.3614400800 -1.27E-07

  *** SCF run converged in     1 steps ***


  Electronic density on regular grids:       -511.9999997098        0.0000002902
  Core density on regular grids:              511.9999984885       -0.0000015115
  Total charge density on r-space grids:       -0.0000012213
  Total charge density g-space grids:          -0.0000012213

  Overlap energy of the core charge distribution:               0.00000239769479
  Self energy of the core charge distribution:              -2838.21791979120962
  Core Hamiltonian energy:                                    827.47107825653381
  Hartree energy:                                            1179.24543935667384
  Exchange-correlation energy:                               -271.61424350791435
  Dispersion energy:                                           -0.24579679182166

  Total energy:                                             -1103.36144008004294

  outer SCF iter =    3 RMS gradient =   0.14E-05 energy =      -1103.3614400800

  ----------------------------------- OT ---------------------------------------
  Minimizer      : DIIS                : direct inversion
                                         in the iterative subspace
                                         using   7 DIIS vectors
                                         safer DIIS on
  Preconditioner : FULL_SINGLE_INVERSE : inversion of 
                                         H + eS - 2*(Sc)(c^T*H*c+const)(Sc)^T
  Precond_solver : DEFAULT
  stepsize       :    0.08000000                  energy_gap     :    0.08000000
  eps_taylor     :   0.10000E-15                  max_taylor     :             4
  ----------------------------------- OT ---------------------------------------

  Step     Update method      Time    Convergence         Total energy    Change
  ------------------------------------------------------------------------------
     1 OT DIIS     0.80E-01    2.2     0.00000095     -1103.3614401316 -5.16E-08

  *** SCF run converged in     1 steps ***


  Electronic density on regular grids:       -511.9999997098        0.0000002902
  Core density on regular grids:              511.9999984885       -0.0000015115
  Total charge density on r-space grids:       -0.0000012213
  Total charge density g-space grids:          -0.0000012213

  Overlap energy of the core charge distribution:               0.00000239769479
  Self energy of the core charge distribution:              -2838.21791979120962
  Core Hamiltonian energy:                                    827.47121302086668
  Hartree energy:                                            1179.24532677408956
  Exchange-correlation energy:                               -271.61426574125892
  Dispersion energy:                                           -0.24579679182166

  Total energy:                                             -1103.36144013163903

  outer SCF iter =    4 RMS gradient =   0.95E-06 energy =      -1103.3614401316
  outer SCF loop converged in   4 iterations or    7 steps


 ENERGY| Total FORCE_EVAL ( QS ) energy [a.u.]:            -1103.361440154509182

 MD| ***************************************************************************
 MD| Step number                                                               2
 MD| Time [fs]                                                          1.000000
 MD| Conserved quantity [hartree]                            -0.110280950773E+04
 MD| ---------------------------------------------------------------------------
 MD|                                          Instantaneous             Averages
 MD| CPU time per MD step [s]                      4.954584            16.707598
 MD| Energy drift per atom [K]           0.295321655682E-01   0.147660827841E-01
 MD| Potential energy [hartree]         -0.110336144015E+04  -0.110335991557E+04
 MD| Kinetic energy [hartree]            0.278348229625E+00   0.276822255877E+00
 MD| Temperature [K]                             305.192063           303.518925
 MD| ***************************************************************************
 MD| Estimated peak process memory after this step [MiB]                     410

 Number of electrons:                                                        512
 Number of occupied orbitals:                                                256
 Number of molecular orbitals:                                               256

 Number of orbital functions:                                               1472
 Number of independent orbital functions:                                   1472

 Extrapolation method: ASPC


 SCF WAVEFUNCTION OPTIMIZATION

  ----------------------------------- OT ---------------------------------------
  Minimizer      : DIIS                : direct inversion
                                         in the iterative subspace
                                         using   7 DIIS vectors
                                         safer DIIS on
  Preconditioner : FULL_SINGLE_INVERSE : inversion of 
                                         H + eS - 2*(Sc)(c^T*H*c+const)(Sc)^T
  Precond_solver : DEFAULT
  stepsize       :    0.08000000                  energy_gap     :    0.08000000
  eps_taylor     :   0.10000E-15                  max_taylor     :             4
  ----------------------------------- OT ---------------------------------------

  Step     Update method      Time    Convergence         Total energy    Change
  ------------------------------------------------------------------------------
     1 OT DIIS     0.80E-01    0.4     0.00005367     -1103.3656772716 -1.10E+03
     2 OT DIIS     0.80E-01    0.5     0.00002867     -1103.3657401556 -6.29E-05
     3 OT DIIS     0.80E-01    0.5     0.00001344     -1103.3657648315 -2.47E-05
     4 OT DIIS     0.80E-01    0.5     0.00000457     -1103.3657714438 -6.61E-06

  *** SCF run converged in     4 steps ***


  Electronic density on regular grids:       -511.9999997010        0.0000002990
  Core density on regular grids:              511.9999984916       -0.0000015084
  Total charge density on r-space grids:       -0.0000012094
  Total charge density g-space grids:          -0.0000012094

  Overlap energy of the core charge distribution:               0.00000232002163
  Self energy of the core charge distribution:              -2838.21791979120962
  Core Hamiltonian energy:                                    827.28340551344286
  Hartree energy:                                            1179.37460844404404
  Exchange-correlation energy:                               -271.56009594116597
  Dispersion energy:                                           -0.24577198892991

  Total energy:                                             -1103.36577144379680

  outer SCF iter =    1 RMS gradient =   0.46E-05 energy =      -1103.3657714438

  ----------------------------------- OT ---------------------------------------
  Minimizer      : DIIS                : direct inversion
                                         in the iterative subspace
                                         using   7 DIIS vectors
                                         safer DIIS on
  Preconditioner : FULL_SINGLE_INVERSE : inversion of 
                                         H + eS - 2*(Sc)(c^T*H*c+const)(Sc)^T
  Precond_solver : DEFAULT
  stepsize       :    0.08000000                  energy_gap     :    0.08000000
  eps_taylor     :   0.10000E-15                  max_taylor     :             4
  ----------------------------------- OT ---------------------------------------

  Step     Update method      Time    Convergence         Total energy    Change
  ------------------------------------------------------------------------------
     1 OT DIIS     0.80E-01    1.1     0.00000133     -1103.3657722710 -8.27E-07

  *** SCF run converged in     1 steps ***


  Electronic density on regular grids:       -511.9999997010        0.0000002990
  Core density on regular grids:              511.9999984916       -0.0000015084
  Total charge density on r-space grids:       -0.0000012094
  Total charge density g-space grids:          -0.0000012094

  Overlap energy of the core charge distribution:               0.00000232002163
  Self energy of the core charge distribution:              -2838.21791979120962
  Core Hamiltonian energy:                                    827.28354804760284
  Hartree energy:                                            1179.37442209754204
  Exchange-correlation energy:                               -271.56005295599107
  Dispersion energy:                                           -0.24577198892991

  Total energy:                                             -1103.36577227096382

  outer SCF iter =    2 RMS gradient =   0.13E-05 energy =      -1103.3657722710

  ----------------------------------- OT ---------------------------------------
  Minimizer      : DIIS                : direct inversion
                                         in the iterative subspace
                                         using   7 DIIS vectors
                                         safer DIIS on
  Preconditioner : FULL_SINGLE_INVERSE : inversion of 
                                         H + eS - 2*(Sc)(c^T*H*c+const)(Sc)^T
  Precond_solver : DEFAULT
  stepsize       :    0.08000000                  energy_gap     :    0.08000000
  eps_taylor     :   0.10000E-15                  max_taylor     :             4
  ----------------------------------- OT ---------------------------------------

  Step     Update method      Time    Convergence         Total energy    Change
  ------------------------------------------------------------------------------
     1 OT DIIS     0.80E-01    1.6     0.00000083     -1103.3657723133 -4.24E-08

  *** SCF run converged in     1 steps ***


  Electronic density on regular grids:       -511.9999997010        0.0000002990
  Core density on regular grids:              511.9999984916       -0.0000015084
  Total charge density on r-space grids:       -0.0000012094
  Total charge density g-space grids:          -0.0000012094

  Overlap energy of the core charge distribution:               0.00000232002163
  Self energy of the core charge distribution:              -2838.21791979120962
  Core Hamiltonian energy:                                    827.28414914432778
  Hartree energy:                                            1179.37393022038873
  Exchange-correlation energy:                               -271.56016221794221
  Dispersion energy:                                           -0.24577198892991

  Total energy:                                             -1103.36577231334331

  outer SCF iter =    3 RMS gradient =   0.83E-06 energy =      -1103.3657723133
  outer SCF loop converged in   3 iterations or    6 steps


 ENERGY| Total FORCE_EVAL ( QS ) energy [a.u.]:            -1103.365772330677828

 MD| ***************************************************************************
 MD| Step number                                                               3
 MD| Time [fs]                                                          1.500000
 MD| Conserved quantity [hartree]                            -0.110280955461E+04
 MD| ---------------------------------------------------------------------------
 MD|                                          Instantaneous             Averages
 MD| CPU time per MD step [s]                      4.393217            12.602804
 MD| Energy drift per atom [K]          -0.475594211380E-01  -0.600908518992E-02
 MD| Potential energy [hartree]         -0.110336577233E+04  -0.110336186782E+04
 MD| Kinetic energy [hartree]            0.282648672688E+00   0.278764394814E+00
 MD| Temperature [K]                             309.907240           305.648363
 MD| ***************************************************************************
 MD| Estimated peak process memory after this step [MiB]                     411

 Number of electrons:                                                        512
 Number of occupied orbitals:                                                256
 Number of molecular orbitals:                                               256

 Number of orbital functions:                                               1472
 Number of independent orbital functions:                                   1472

 Extrapolation method: ASPC


 SCF WAVEFUNCTION OPTIMIZATION

  ----------------------------------- OT ---------------------------------------
  Minimizer      : DIIS                : direct inversion
                                         in the iterative subspace
                                         using   7 DIIS vectors
                                         safer DIIS on
  Preconditioner : FULL_SINGLE_INVERSE : inversion of 
                                         H + eS - 2*(Sc)(c^T*H*c+const)(Sc)^T
  Precond_solver : DEFAULT
  stepsize       :    0.08000000                  energy_gap     :    0.08000000
  eps_taylor     :   0.10000E-15                  max_taylor     :             4
  ----------------------------------- OT ---------------------------------------

  Step     Update method      Time    Convergence         Total energy    Change
  ------------------------------------------------------------------------------
     1 OT DIIS     0.80E-01    0.4     0.00004062     -1103.3705930816 -1.10E+03
     2 OT DIIS     0.80E-01    0.5     0.00002174     -1103.3706292267 -3.61E-05
     3 OT DIIS     0.80E-01    0.5     0.00000998     -1103.3706435166 -1.43E-05

  *** SCF run converged in     3 steps ***


  Electronic density on regular grids:       -511.9999996937        0.0000003063
  Core density on regular grids:              511.9999984924       -0.0000015076
  Total charge density on r-space grids:       -0.0000012013
  Total charge density g-space grids:          -0.0000012013

  Overlap energy of the core charge distribution:               0.00000218447781
  Self energy of the core charge distribution:              -2838.21791979120962
  Core Hamiltonian energy:                                    826.97460947081834
  Hartree energy:                                            1179.58843872930402
  Exchange-correlation energy:                               -271.47004214686069
  Dispersion energy:                                           -0.24573196310325

  Total energy:                                             -1103.37064351657295

  outer SCF iter =    1 RMS gradient =   0.10E-04 energy =      -1103.3706435166

  ----------------------------------- OT ---------------------------------------
  Minimizer      : DIIS                : direct inversion
                                         in the iterative subspace
                                         using   7 DIIS vectors
                                         safer DIIS on
  Preconditioner : FULL_SINGLE_INVERSE : inversion of 
                                         H + eS - 2*(Sc)(c^T*H*c+const)(Sc)^T
  Precond_solver : DEFAULT
  stepsize       :    0.08000000                  energy_gap     :    0.08000000
  eps_taylor     :   0.10000E-15                  max_taylor     :             4
  ----------------------------------- OT ---------------------------------------

  Step     Update method      Time    Convergence         Total energy    Change
  ------------------------------------------------------------------------------
     1 OT DIIS     0.80E-01    1.1     0.00000335     -1103.3706471272 -3.61E-06

  *** SCF run converged in     1 steps ***


  Electronic density on regular grids:       -511.9999996937        0.0000003063
  Core density on regular grids:              511.9999984924       -0.0000015076
  Total charge density on r-space grids:       -0.0000012013
  Total charge density g-space grids:          -0.0000012013

  Overlap energy of the core charge distribution:               0.00000218447781
  Self energy of the core charge distribution:              -2838.21791979120962
  Core Hamiltonian energy:                                    826.97235381286123
  Hartree energy:                                            1179.59014056410069
  Exchange-correlation energy:                               -271.46949193437683
  Dispersion energy:                                           -0.24573196310325

  Total energy:                                             -1103.37064712724964

  outer SCF iter =    2 RMS gradient =   0.34E-05 energy =      -1103.3706471272

  ----------------------------------- OT ---------------------------------------
  Minimizer      : DIIS                : direct inversion
                                         in the iterative subspace
                                         using   7 DIIS vectors
                                         safer DIIS on
  Preconditioner : FULL_SINGLE_INVERSE : inversion of 
                                         H + eS - 2*(Sc)(c^T*H*c+const)(Sc)^T
  Precond_solver : DEFAULT
  stepsize       :    0.08000000                  energy_gap     :    0.08000000
  eps_taylor     :   0.10000E-15                  max_taylor     :             4
  ----------------------------------- OT ---------------------------------------

  Step     Update method      Time    Convergence         Total energy    Change
  ------------------------------------------------------------------------------
     1 OT DIIS     0.80E-01    1.6     0.00000212     -1103.3706474008 -2.74E-07

  *** SCF run converged in     1 steps ***


  Electronic density on regular grids:       -511.9999996937        0.0000003063
  Core density on regular grids:              511.9999984924       -0.0000015076
  Total charge density on r-space grids:       -0.0000012013
  Total charge density g-space grids:          -0.0000012013

  Overlap energy of the core charge distribution:               0.00000218447781
  Self energy of the core charge distribution:              -2838.21791979120962
  Core Hamiltonian energy:                                    826.97245576044770
  Hartree energy:                                            1179.59004275675602
  Exchange-correlation energy:                               -271.46949634819617
  Dispersion energy:                                           -0.24573196310325

  Total energy:                                             -1103.37064740082724

  outer SCF iter =    3 RMS gradient =   0.21E-05 energy =      -1103.3706474008

  ----------------------------------- OT ---------------------------------------
  Minimizer      : DIIS                : direct inversion
                                         in the iterative subspace
                                         using   7 DIIS vectors
                                         safer DIIS on
  Preconditioner : FULL_SINGLE_INVERSE : inversion of 
                                         H + eS - 2*(Sc)(c^T*H*c+const)(Sc)^T
  Precond_solver : DEFAULT
  stepsize       :    0.08000000                  energy_gap     :    0.08000000
  eps_taylor     :   0.10000E-15                  max_taylor     :             4
  ----------------------------------- OT ---------------------------------------

  Step     Update method      Time    Convergence         Total energy    Change
  ------------------------------------------------------------------------------
     1 OT DIIS     0.80E-01    2.2     0.00000141     -1103.3706475134 -1.13E-07

  *** SCF run converged in     1 steps ***


  Electronic density on regular grids:       -511.9999996937        0.0000003063
  Core density on regular grids:              511.9999984924       -0.0000015076
  Total charge density on r-space grids:       -0.0000012013
  Total charge density g-space grids:          -0.0000012013

  Overlap energy of the core charge distribution:               0.00000218447781
  Self energy of the core charge distribution:              -2838.21791979120962
  Core Hamiltonian energy:                                    826.97263315064060
  Hartree energy:                                            1179.58988790848866
  Exchange-correlation energy:                               -271.46951900270358
  Dispersion energy:                                           -0.24573196310325

  Total energy:                                             -1103.37064751340927

  outer SCF iter =    4 RMS gradient =   0.14E-05 energy =      -1103.3706475134

  ----------------------------------- OT ---------------------------------------
  Minimizer      : DIIS                : direct inversion
                                         in the iterative subspace
                                         using   7 DIIS vectors
                                         safer DIIS on
  Preconditioner : FULL_SINGLE_INVERSE : inversion of 
                                         H + eS - 2*(Sc)(c^T*H*c+const)(Sc)^T
  Precond_solver : DEFAULT
  stepsize       :    0.08000000                  energy_gap     :    0.08000000
  eps_taylor     :   0.10000E-15                  max_taylor     :             4
  ----------------------------------- OT ---------------------------------------

  Step     Update method      Time    Convergence         Total energy    Change
  ------------------------------------------------------------------------------
     1 OT DIIS     0.80E-01    2.8     0.00000095     -1103.3706475634 -5.00E-08

  *** SCF run converged in     1 steps ***


  Electronic density on regular grids:       -511.9999996937        0.0000003063
  Core density on regular grids:              511.9999984924       -0.0000015076
  Total charge density on r-space grids:       -0.0000012013
  Total charge density g-space grids:          -0.0000012013

  Overlap energy of the core charge distribution:               0.00000218447781
  Self energy of the core charge distribution:              -2838.21791979120962
  Core Hamiltonian energy:                                    826.97270410524595
  Hartree energy:                                            1179.58982291317602
  Exchange-correlation energy:                               -271.46952501198984
  Dispersion energy:                                           -0.24573196310325

  Total energy:                                             -1103.37064756340260

  outer SCF iter =    5 RMS gradient =   0.95E-06 energy =      -1103.3706475634
  outer SCF loop converged in   5 iterations or    7 steps


 ENERGY| Total FORCE_EVAL ( QS ) energy [a.u.]:            -1103.370647586263431

 MD| ***************************************************************************
 MD| Step number                                                               4
 MD| Time [fs]                                                          2.000000
 MD| Conserved quantity [hartree]                            -0.110280962757E+04
 MD| ---------------------------------------------------------------------------
 MD|                                          Instantaneous             Averages
 MD| CPU time per MD step [s]                      4.999121            10.701883
 MD| Energy drift per atom [K]          -0.167561172731E+00  -0.463971070751E-01
 MD| Potential energy [hartree]         -0.110337064759E+04  -0.110336406277E+04
 MD| Kinetic energy [hartree]            0.287465146961E+00   0.280939582850E+00
 MD| Temperature [K]                             315.188214           308.033326
 MD| ***************************************************************************
 MD| Estimated peak process memory after this step [MiB]                     411

 Number of electrons:                                                        512
 Number of occupied orbitals:                                                256
 Number of molecular orbitals:                                               256

 Number of orbital functions:                                               1472
 Number of independent orbital functions:                                   1472

 Extrapolation method: ASPC


 SCF WAVEFUNCTION OPTIMIZATION

  ----------------------------------- OT ---------------------------------------
  Minimizer      : DIIS                : direct inversion
                                         in the iterative subspace
                                         using   7 DIIS vectors
                                         safer DIIS on
  Preconditioner : FULL_SINGLE_INVERSE : inversion of 
                                         H + eS - 2*(Sc)(c^T*H*c+const)(Sc)^T
  Precond_solver : DEFAULT
  stepsize       :    0.08000000                  energy_gap     :    0.08000000
  eps_taylor     :   0.10000E-15                  max_taylor     :             4
  ----------------------------------- OT ---------------------------------------

  Step     Update method      Time    Convergence         Total energy    Change
  ------------------------------------------------------------------------------
     1 OT DIIS     0.80E-01    0.4     0.00003619     -1103.3748684479 -1.10E+03
     2 OT DIIS     0.80E-01    0.5     0.00001974     -1103.3748975237 -2.91E-05
     3 OT DIIS     0.80E-01    0.5     0.00000877     -1103.3749096829 -1.22E-05

  *** SCF run converged in     3 steps ***


  Electronic density on regular grids:       -511.9999996863        0.0000003137
  Core density on regular grids:              511.9999984927       -0.0000015073
  Total charge density on r-space grids:       -0.0000011937
  Total charge density g-space grids:          -0.0000011937

  Overlap energy of the core charge distribution:               0.00000201837365
  Self energy of the core charge distribution:              -2838.21791979120962
  Core Hamiltonian energy:                                    826.56983997666407
  Hartree energy:                                            1179.87073200736768
  Exchange-correlation energy:                               -271.35188518341386
  Dispersion energy:                                           -0.24567871070875

  Total energy:                                             -1103.37490968292673

  outer SCF iter =    1 RMS gradient =   0.88E-05 energy =      -1103.3749096829

  ----------------------------------- OT ---------------------------------------
  Minimizer      : DIIS                : direct inversion
                                         in the iterative subspace
                                         using   7 DIIS vectors
                                         safer DIIS on
  Preconditioner : FULL_SINGLE_INVERSE : inversion of 
                                         H + eS - 2*(Sc)(c^T*H*c+const)(Sc)^T
  Precond_solver : DEFAULT
  stepsize       :    0.08000000                  energy_gap     :    0.08000000
  eps_taylor     :   0.10000E-15                  max_taylor     :             4
  ----------------------------------- OT ---------------------------------------

  Step     Update method      Time    Convergence         Total energy    Change
  ------------------------------------------------------------------------------
     1 OT DIIS     0.80E-01    1.1     0.00000295     -1103.3749124917 -2.81E-06

  *** SCF run converged in     1 steps ***


  Electronic density on regular grids:       -511.9999996863        0.0000003137
  Core density on regular grids:              511.9999984927       -0.0000015073
  Total charge density on r-space grids:       -0.0000011937
  Total charge density g-space grids:          -0.0000011937

  Overlap energy of the core charge distribution:               0.00000201837365
  Self energy of the core charge distribution:              -2838.21791979120962
  Core Hamiltonian energy:                                    826.56928531177880
  Hartree energy:                                            1179.87108703613717
  Exchange-correlation energy:                               -271.35168835608886
  Dispersion energy:                                           -0.24567871070875

  Total energy:                                             -1103.37491249171740

  outer SCF iter =    2 RMS gradient =   0.30E-05 energy =      -1103.3749124917

  ----------------------------------- OT ---------------------------------------
  Minimizer      : DIIS                : direct inversion
                                         in the iterative subspace
                                         using   7 DIIS vectors
                                         safer DIIS on
  Preconditioner : FULL_SINGLE_INVERSE : inversion of 
                                         H + eS - 2*(Sc)(c^T*H*c+const)(Sc)^T
  Precond_solver : DEFAULT
  stepsize       :    0.08000000                  energy_gap     :    0.08000000
  eps_taylor     :   0.10000E-15                  max_taylor     :             4
  ----------------------------------- OT ---------------------------------------

  Step     Update method      Time    Convergence         Total energy    Change
  ------------------------------------------------------------------------------
     1 OT DIIS     0.80E-01    1.7     0.00000186     -1103.3749127034 -2.12E-07

  *** SCF run converged in     1 steps ***


  Electronic density on regular grids:       -511.9999996863        0.0000003137
  Core density on regular grids:              511.9999984927       -0.0000015073
  Total charge density on r-space grids:       -0.0000011937
  Total charge density g-space grids:          -0.0000011937

  Overlap energy of the core charge distribution:               0.00000201837365
  Self energy of the core charge distribution:              -2838.21791979120962
  Core Hamiltonian energy:                                    826.56922654193636
  Hartree energy:                                            1179.87112678751168
  Exchange-correlation energy:                               -271.35166954927161
  Dispersion energy:                                           -0.24567871070875

  Total energy:                                             -1103.37491270336818

  outer SCF iter =    3 RMS gradient =   0.19E-05 energy =      -1103.3749127034

  ----------------------------------- OT ---------------------------------------
  Minimizer      : DIIS                : direct inversion
                                         in the iterative subspace
                                         using   7 DIIS vectors
                                         safer DIIS on
  Preconditioner : FULL_SINGLE_INVERSE : inversion of 
                                         H + eS - 2*(Sc)(c^T*H*c+const)(Sc)^T
  Precond_solver : DEFAULT
  stepsize       :    0.08000000                  energy_gap     :    0.08000000
  eps_taylor     :   0.10000E-15                  max_taylor     :             4
  ----------------------------------- OT ---------------------------------------

  Step     Update method      Time    Convergence         Total energy    Change
  ------------------------------------------------------------------------------
     1 OT DIIS     0.80E-01    2.2     0.00000124     -1103.3749127902 -8.68E-08

  *** SCF run converged in     1 steps ***


  Electronic density on regular grids:       -511.9999996863        0.0000003137
  Core density on regular grids:              511.9999984927       -0.0000015073
  Total charge density on r-space grids:       -0.0000011937
  Total charge density g-space grids:          -0.0000011937

  Overlap energy of the core charge distribution:               0.00000201837365
  Self energy of the core charge distribution:              -2838.21791979120962
  Core Hamiltonian energy:                                    826.56932978161115
  Hartree energy:                                            1179.87103588290915
  Exchange-correlation energy:                               -271.35168197115178
  Dispersion energy:                                           -0.24567871070875

  Total energy:                                             -1103.37491279017604

  outer SCF iter =    4 RMS gradient =   0.12E-05 energy =      -1103.3749127902

  ----------------------------------- OT ---------------------------------------
  Minimizer      : DIIS                : direct inversion
                                         in the iterative subspace
                                         using   7 DIIS vectors
                                         safer DIIS on
  Preconditioner : FULL_SINGLE_INVERSE : inversion of 
                                         H + eS - 2*(Sc)(c^T*H*c+const)(Sc)^T
  Precond_solver : DEFAULT
  stepsize       :    0.08000000                  energy_gap     :    0.08000000
  eps_taylor     :   0.10000E-15                  max_taylor     :             4
  ----------------------------------- OT ---------------------------------------

  Step     Update method      Time    Convergence         Total energy    Change
  ------------------------------------------------------------------------------
     1 OT DIIS     0.80E-01    2.8     0.00000084     -1103.3749128287 -3.86E-08

  *** SCF run converged in     1 steps ***


  Electronic density on regular grids:       -511.9999996863        0.0000003137
  Core density on regular grids:              511.9999984927       -0.0000015073
  Total charge density on r-space grids:       -0.0000011937
  Total charge density g-space grids:          -0.0000011937

  Overlap energy of the core charge distribution:               0.00000201837365
  Self energy of the core charge distribution:              -2838.21791979120962
  Core Hamiltonian energy:                                    826.56937395541036
  Hartree energy:                                            1179.87099484060991
  Exchange-correlation energy:                               -271.35168514122063
  Dispersion energy:                                           -0.24567871070875

  Total energy:                                             -1103.37491282874475

  outer SCF iter =    5 RMS gradient =   0.84E-06 energy =      -1103.3749128287
  outer SCF loop converged in   5 iterations or    7 steps


 ENERGY| Total FORCE_EVAL ( QS ) energy [a.u.]:            -1103.374912846428515

 MD| ***************************************************************************
 MD| Step number                                                               5
 MD| Time [fs]                                                          2.500000
 MD| Conserved quantity [hartree]                            -0.110280968769E+04
[...]
 flops   181 x    32 x    72           2749022208       0.0%    100.0%      0.0%
 flops   187 x    32 x    72           2840150016       0.0%    100.0%      0.0%
 flops   179 x    32 x    53           3001838592       0.0%    100.0%      0.0%
 flops   189 x    32 x    53           3169539072       0.0%    100.0%      0.0%
 flops   181 x    32 x    56           3207192576       0.0%    100.0%      0.0%
 flops   187 x    32 x    56           3313508352       0.0%    100.0%      0.0%
 flops    13 x    32 x    32           3435134976       0.0%    100.0%      0.0%
 flops    32 x    32 x    53           3779067904       0.0%    100.0%      0.0%
 flops   181 x    32 x    32           7567966208       0.0%    100.0%      0.0%
 flops   187 x    32 x    32           7818838016       0.0%    100.0%      0.0%
 flops   179 x    32 x    72           8155938816       0.0%    100.0%      0.0%
 flops   189 x    32 x    72           8611577856       0.0%    100.0%      0.0%
 flops   179 x    32 x    56           9515261952       0.0%    100.0%      0.0%
 flops   189 x    32 x    56          10046840832       0.0%    100.0%      0.0%
 flops    32 x    32 x    72          10862198784       0.0%    100.0%      0.0%
 flops     5 x     5 x    32          12152832000       0.0%    100.0%      0.0%
 flops    32 x    32 x    56          12441354240       0.0%    100.0%      0.0%
 flops    32 x    32 x    32          12918456320       0.0%    100.0%      0.0%
 flops    13 x     5 x    32          15676211200       0.0%    100.0%      0.0%
 flops     5 x    13 x    32          15676211200       0.0%    100.0%      0.0%
 flops    13 x    13 x    32          20697497600       0.0%    100.0%      0.0%
 flops   179 x    32 x    32          22453026816       0.0%    100.0%      0.0%
 flops   189 x    32 x    32          23707385856       0.0%    100.0%      0.0%
 flops     5 x    32 x     5          58720256000       0.0%    100.0%      0.0%
 flops    13 x    32 x     5          76336332800       0.0%    100.0%      0.0%
 flops     5 x    32 x    13          76336332800       0.0%    100.0%      0.0%
 flops    13 x    32 x    13          99237232640       0.0%    100.0%      0.0%
 flops inhomo. stacks                110729625600     100.0%      0.0%      0.0%
 flops total                       650.384851E+09      17.0%     83.0%      0.0%
 flops max/rank                     10.205869E+09      17.5%     82.5%      0.0%
 matmuls inhomo. stacks                    300096     100.0%      0.0%      0.0%
 matmuls total                          100968832       0.3%     99.7%      0.0%
 number of processed stacks               3042944       9.9%     90.1%      0.0%
 average stack size                                     1.0      36.7       0.0
 marketing flops                   701.032235E+09
 -------------------------------------------------------------------------------
 # multiplications                           1586
 max memory usage/rank               1.312547E+09
 # max total images/rank                        3
 # max 3D layers                                1
 # MPI messages exchanged                 6547008
 MPI messages size (bytes):
  total size                       120.986198E+09
  min size                           0.000000E+00
  max size                         126.080000E+03
  average size                      18.479617E+03
 MPI breakdown and total messages size (bytes):
             size <=      128             3163776                        0
       128 < size <=     8192              600544               4919656448
      8192 < size <=    32768             1628832              26788233216
     32768 < size <=   131072             1153856              89278283776
    131072 < size <=  4194304                   0                        0
   4194304 < size <= 16777216                   0                        0
  16777216 < size                               0                        0
 -------------------------------------------------------------------------------

 *** WARNING in dbcsr_mm.F:291 :: Using a non-square number of MPI ranks ***
 *** might lead to poor performance. Used ranks: 96 Suggested: 100 196   ***

 -------------------------------------------------------------------------------
 -                                                                             -
 -                      DBCSR MESSAGE PASSING PERFORMANCE                      -
 -                                                                             -
 -------------------------------------------------------------------------------
 ROUTINE             CALLS      AVE VOLUME [Bytes]
 MP_Bcast               32                     12.
 MP_Allreduce         8130                     15.
 MP_Alltoall          7600                  25635.
 MP_ISend           144696                   9726.
 MP_IRecv           144706                   9526.
 -------------------------------------------------------------------------------

 -------------------------------------------------------------------------------
 -                                                                             -
 -                                DBM STATISTICS                               -
 -                                                                             -
 -------------------------------------------------------------------------------
    M  x    N  x    K                                          COUNT     PERCENT
 -------------------------------------------------------------------------------

 -------------------------------------------------------------------------------
 -                                                                             -
 -                                GRID STATISTICS                              -
 -                                                                             -
 -------------------------------------------------------------------------------
 LP    KERNEL             BACKEND                              COUNT     PERCENT
 2     collocate ortho    CPU                               41234493      28.78%
 2     integrate ortho    CPU                               38180260      26.64%
 3     integrate ortho    CPU                               27582659      19.25%
 3     collocate ortho    CPU                               26490660      18.49%
 4     integrate ortho    CPU                                5490519       3.83%
 4     collocate ortho    CPU                                3810527       2.66%
 5     integrate ortho    CPU                                 282242       0.20%
 0     collocate general  CPU                                 110592       0.08%
 1     integrate general  CPU                                 110592       0.08%
 -------------------------------------------------------------------------------

 MEMORY| Estimated peak process memory [MiB]                                 412

 -------------------------------------------------------------------------------
 -                                                                             -
 -                         MESSAGE PASSING PERFORMANCE                         -
 -                                                                             -
 -------------------------------------------------------------------------------

 ROUTINE             CALLS      AVE VOLUME [Bytes]
 MP_Group                4
 MP_Bcast             5904                  66343.
 MP_Allreduce        14715                    491.
 MP_Sync                34
 MP_Alltoall          2124                2685478.
 MP_SendRecv         17670                   7968.
 MP_ISendRecv        15390                   9000.
 MP_Wait             24384
 MP_comm_split          30
 MP_ISend             7488                 100704.
 MP_IRecv             7488                 100704.
 -------------------------------------------------------------------------------


 -------------------------------------------------------------------------------
 -                                                                             -
 -                           R E F E R E N C E S                               -
 -                                                                             -
 -------------------------------------------------------------------------------
 
 CP2K version 2024.1, the CP2K developers group (2024).
 CP2K is freely available from https://www.cp2k.org/ .

 Kuehne,Thomas D.; Iannuzzi,Marcella; Del Ben,Mauro;
 Rybkin,Vladimir V.; Seewald,Patrick; Stein,Frederick; Laino,Teodoro;
 Khaliullin,Rustam Z.; Schuett,Ole; Schiffmann,Florian; Golze,Dorothea;
 Wilhelm,Jan; Chulkov,Sergey; Bani-Hashemian,Mohammad Hossein;
 Weber,Valery; Borstnik,Urban; Taillefumier,Mathieu;
 Jakobovits,Alice Shoshana; Lazzaro,Alfio; Pabst,Hans; Mueller,Tiziano;
 Schade,Robert; Guidon,Manuel; Andermatt,Samuel; Holmberg,Nico;
 Schenter,Gregory K.; Hehn,Anna; Bussy,Augustin; Belleflamme,Fabian;
 Tabacchi,Gloria; Gloess,Andreas; Lass,Michael; Bethune,Iain;
 Mundy,Christopher J.; Plessl,Christian; Watkins,Matt;
 VandeVondele,Joost; Krack,Matthias; Hutter,Juerg. 
 The Journal of Chemical Physics, 152 (19), (2020). 
 CP2K: An electronic structure and molecular dynamics software package -
 Quickstep: Efficient and accurate electronic structure calculations.
 https://doi.org/10.1063/5.0007045

 Goerigk, Lars; Hansen, Andreas; Bauer, Christoph; Ehrlich, Stephan;
 Najibi, Asim; Grimme, Stefan. , 19 (48), (2017). 
 A look at the density functional theory zoo with the advanced GMTKN55 database
 for general main group thermochemistry, kinetics and noncovalent interactions.
 https://doi.org/10.1039/C7CP04913G

 Schuett, Ole; Messmer, Peter; Hutter, Juerg; VandeVondele, Joost. 
 Electronic Structure Calculations on Graphics Processing Units, John
 Wiley & Sons, Ltd, 173-190 (2016). 
 GPU-Accelerated Sparse Matrix-Matrix Multiplication for
 Linear Scaling Density Functional Theory.
 https://doi.org/10.1002/9781118670712.ch8

 Heinecke, A; Henry, G; Hutchinson, M; Pabst, H. 
 Proceedings of Intl. Supercomputing Conference, 981-991 (2016). 
 LIBXSMM: Accelerating Small Matrix Multiplications
 by Runtime Code Generation.
 https://doi.org/10.1109/SC.2016.83

 Borstnik, U; VandeVondele, J; Weber, V; Hutter, J. 
 PARALLEL COMPUTING, 40 (5-6), 47-58 (2014). 
 Sparse matrix multiplication: The distributed block-compressed sparse
 row library.
 https://doi.org/10.1016/j.parco.2014.03.012

 Hutter, J; Iannuzzi, M; Schiffmann, F; VandeVondele, J. 
 WIREs Comput Mol Sci., 4 (1), 15-25 (2014). 
 CP2K: atomistic simulations of condensed matter systems.
 https://doi.org/10.1002/wcms.1159

 Marek, A; Blum, V; Johanni, R; Havu, V; Lang, B; Auckenthaler, T;
 Heinecke, A; Bungartz, H; Lederer, H. 
 Journal of Physics: Condensed Matter, 26 (21), (2014). 
 The ELPA library: scalable parallel eigenvalue solutions for
 electronic structure
 theory and computational science.
 https://doi.org/10.1088/0953-8984/26/21/213201

 Grimme, S; Ehrlich, S; Goerigk, L. 
 JOURNAL OF COMPUTATIONAL CHEMISTRY, 32, 1456 (2011). 
 Effect of the damping function in dispersion corrected density functional theory.
 https://doi.org/10.1002/jcc.21759

 Grimme, S; Antony, J; Ehrlich, S; Krieg, H. 
 JOURNAL OF CHEMICAL PHYSICS, 132 (15), 154104 (2010). 
 A consistent and accurate ab initio parametrization of density
 functional dispersion correction (DFT-D) for the 94 elements H-Pu.
 https://doi.org/10.1063/1.3382344

 VandeVondele, J; Hutter, J. 
 JOURNAL OF CHEMICAL PHYSICS, 127 (11), 114105 (2007). 
 Gaussian basis sets for accurate calculations on molecular systems in
 gas and condensed phases.
 https://doi.org/10.1063/1.2770708

 Kuhne, TD; Krack, M; Mohamed, FR; Parrinello, M. 
 PHYSICAL REVIEW LETTERS, 98 (6), 066401 (2007). 
 Efficient and accurate Car-Parrinello-like approach to
 Born-Oppenheimer molecular dynamics.
 https://doi.org/10.1103/PhysRevLett.98.066401

 Krack, M. 
 THEORETICAL CHEMISTRY ACCOUNTS, 114 (1-3), 145-152 (2005). 
 Pseudopotentials for H to Kr optimized for gradient-corrected
 exchange-correlation functionals.
 https://doi.org/10.1007/s00214-005-0655-y

 VandeVondele, J; Krack, M; Mohamed, F; Parrinello, M; Chassaing, T;
 Hutter, J. COMPUTER PHYSICS COMMUNICATIONS, 167 (2), 103-128 (2005). 
 QUICKSTEP: Fast and accurate density functional calculations using a
 mixed Gaussian and plane waves approach.
 https://doi.org/10.1016/j.cpc.2004.12.014

 Frigo, M; Johnson, SG. 
 PROCEEDINGS OF THE IEEE, 93 (2), 216-231 (2005). 
 The design and implementation of FFTW3.
 https://doi.org/10.1109/JPROC.2004.840301

 Kolafa, J. 
 JOURNAL OF COMPUTATIONAL CHEMISTRY, 25 (3), 335-342 (2004). 
 Time-reversible always stable predictor-corrector method for
 molecular dynamics of polarizable molecules.
 https://doi.org/10.1002/jcc.10385

 VandeVondele, J; Hutter, J. 
 JOURNAL OF CHEMICAL PHYSICS, 118 (10), 4365-4369 (2003). 
 An efficient orbital transformation method for electronic structure
 calculations.
 https://doi.org/10.1063/1.1543154

 Hartwigsen, C; Goedecker, S; Hutter, J. 
 PHYSICAL REVIEW B, 58 (7), 3641-3662 (1998). 
 Relativistic separable dual-space Gaussian pseudopotentials from H to Rn.
 https://doi.org/10.1103/PhysRevB.58.3641

 Lippert, G; Hutter, J; Parrinello, M. 
 MOLECULAR PHYSICS, 92 (3), 477-487 (1997). 
 A hybrid Gaussian and plane wave density functional scheme.
 https://doi.org/10.1080/002689797170220

 Perdew, JP; Burke, K; Ernzerhof, M. 
 PHYSICAL REVIEW LETTERS, 77 (18), 3865-3868 (1996). 
 Generalized gradient approximation made simple.
 https://doi.org/10.1103/PhysRevLett.77.3865

 Goedecker, S; Teter, M; Hutter, J. 
 PHYSICAL REVIEW B, 54 (3), 1703-1710 (1996). 
 Separable dual-space Gaussian pseudopotentials.
 https://doi.org/10.1103/PhysRevB.54.1703

 NOSE, S. JOURNAL OF CHEMICAL PHYSICS, 81 (1), 511-519 (1984). 
 A UNIFIED FORMULATION OF THE CONSTANT TEMPERATURE MOLECULAR-DYNAMICS
 METHODS.
 https://doi.org/10.1063/1.447334

 NOSE, S. MOLECULAR PHYSICS, 52 (2), 255-268 (1984). 
 A MOLECULAR-DYNAMICS METHOD FOR SIMULATIONS IN THE CANONICAL ENSEMBLE.
 https://doi.org/10.1080/00268978400101201


 -------------------------------------------------------------------------------
 -                                                                             -
 -                                T I M I N G                                  -
 -                                                                             -
 -------------------------------------------------------------------------------
 SUBROUTINE                       CALLS  ASD         SELF TIME        TOTAL TIME
                                MAXIMUM       AVERAGE  MAXIMUM  AVERAGE  MAXIMUM
 CP2K                                 1  1.0    0.041    0.050   48.271   48.272
 qs_mol_dyn_low                       1  2.0    0.015    0.016   47.885   47.894
 qs_forces                            6  3.8    0.004    0.005   47.803   47.803
 qs_energies                          6  4.8    0.007    0.007   43.563   43.564
 scf_env_do_scf                       6  5.8    0.000    0.002   40.393   40.393
 scf_env_do_scf_inner_loop           75  6.5    0.004    0.007   30.958   30.958
 velocity_verlet                      5  3.0    0.003    0.004   25.482   25.483
 rebuild_ks_matrix                   81  8.3    0.000    0.000   23.197   23.210
 qs_ks_build_kohn_sham_matrix        81  9.3    0.011    0.013   23.197   23.210
 qs_ks_update_qs_env                103  7.6    0.001    0.001   20.910   20.922
 sum_up_and_integrate                81 10.3    0.001    0.001   19.172   19.174
 integrate_v_rspace                  81 11.3    0.002    0.002   19.159   19.165
 grid_integrate_task_list            81 12.3   17.212   17.648   17.212   17.648
 qs_rho_update_rho_low               81  7.6    0.000    0.000   16.346   16.350
 calculate_rho_elec                  81  8.6    0.011    0.014   16.346   16.349
 grid_collocate_task_list            81  9.6   14.203   14.607   14.203   14.607
 init_scf_loop                       28  6.8    0.002    0.002    9.424    9.425
 pw_transfer                       1545 12.5    0.086    0.092    3.526    3.850
 fft_wrap_pw1pw2                   1383 13.6    0.007    0.008    3.417    3.744
 qs_vxc_create                       81 10.3    0.003    0.003    3.285    3.335
 xc_vxc_pw_create                    81 11.3    0.029    0.036    3.283    3.333
 fft_wrap_pw1pw2_200                897 15.0    0.264    0.286    2.995    3.315
 fft3d_ps                          1383 15.6    0.816    0.973    2.745    3.123
 dbcsr_multiply_generic            1586 12.1    0.048    0.050    3.039    3.064
 qs_scf_new_mos                      75  7.5    0.000    0.001    2.862    2.877
 qs_scf_loop_do_ot                   75  8.5    0.000    0.000    2.862    2.876
 ot_scf_mini                         75  9.5    0.001    0.001    2.708    2.712
 density_rs2pw                       81  9.6    0.003    0.003    2.027    2.493
 xc_pw_derive                       486 13.3    0.003    0.003    1.932    2.340
 qs_ks_update_qs_env_forces           6  4.8    0.000    0.000    2.303    2.305
 xc_rho_set_and_dset_create          81 12.3    0.030    0.039    1.867    2.138
 transfer_rs2pw                     330 10.5    0.003    0.003    1.550    2.085
 mp_alltoall_z22v                  1383 17.6    1.444    2.079    1.444    2.079
 build_core_hamiltonian_matrix_       6  4.8    0.000    0.000    1.544    1.923
 multiply_cannon                   1586 13.1    0.105    0.116    1.837    1.908
 mp_waitany                        7488 13.8    1.328    1.849    1.328    1.849
 xc_pw_divergence                    81 12.3    0.001    0.001    1.330    1.670
 transfer_rs2pw_200                  87 11.4    0.097    0.107    1.129    1.658
 multiply_cannon_loop              1586 14.1    0.135    0.143    1.551    1.625
 init_scf_run                         6  5.8    0.001    0.002    1.574    1.574
 scf_env_initial_rho_setup            6  6.8    0.000    0.000    1.572    1.573
 ot_mini                             75 10.5    0.000    0.001    1.550    1.560
 qs_energies_init_hamiltonians        6  5.8    0.001    0.004    1.533    1.533
 potential_pw2rs                     81 12.3    0.003    0.003    1.348    1.354
 yz_to_x                            411 17.3    0.050    0.067    0.855    1.323
 qs_ot_get_derivative                75 11.5    0.000    0.001    1.263    1.267
 xc_functional_eval                  81 13.3    0.001    0.001    0.928    1.211
 pbe_lda_eval                        81 14.3    0.927    1.210    0.927    1.210
 prepare_preconditioner              28  7.8    0.000    0.000    1.197    1.202
 make_preconditioner                 28  8.8    0.000    0.000    1.197    1.202
 build_core_ppl_forces                6  5.8    0.881    1.161    0.881    1.161
 mp_waitall_1                    169152 16.1    0.795    1.159    0.795    1.159
 wfi_extrapolate                      6  7.8    0.000    0.000    1.146    1.147
 mp_sum_d                          4022 11.6    0.648    1.106    0.648    1.106
 mp_alltoall_d11v                  2232 13.6    0.835    1.060    0.835    1.060
 multiply_cannon_metrocomm3       38064 15.1    0.038    0.039    0.582    0.991
 -------------------------------------------------------------------------------

 The number of warnings for this run is : 2
 
 -------------------------------------------------------------------------------
  **** **** ******  **  PROGRAM ENDED AT                 2024-07-07 15:39:01.557
 ***** ** ***  *** **   PROGRAM RAN ON                                     c0266
 **    ****   ******    PROGRAM RAN BY                                  nichdsas
 ***** **    ** ** **   PROGRAM PROCESS ID                                804639
  **** **  *******  **  PROGRAM STOPPED IN /scratch-grete/usr/nichdsas/test_pars
                                           er/cp2k-2024.1/md_nvt_low
