       2
 i =        1, E =        -1.1611801901
  H         2.0000000001        2.0000000001        2.7277370936
  H         2.0000000001        2.0000000001        2.0094289071
       2
 i =        2, E =        -1.1611853721
  H         2.0000000001        2.0000000001        2.7290247584
  H         2.0000000001        2.0000000001        2.0081412426
       2
 i =        3, E =        -1.1611853721
  H         2.0000000001        2.0000000001        2.7290247584
  H         2.0000000001        2.0000000001        2.0081412426
