# Projected DOS for atomic kind C at iteration step i = 0, E(Fermi) =    -0.079165 a.u.
#     MO Eigenvalue [a.u.]      Occupation                 s                py                pz                px               d-2               d-1                d0               d+1               d+2
       1         -1.911178        2.000000        0.00178261        0.00252612        0.00445199        0.00224243        0.00032079        0.00037272        0.00064032        0.00064516        0.00027399
       2         -1.911178        2.000000        0.00139594        0.00276508        0.00468291        0.00287401        0.00032331        0.00037033        0.00064823        0.00063739        0.00026979
       3         -1.911044        2.000000        0.00159821        0.00271956        0.00454306        0.00208000        0.00028131        0.00056524        0.00046523        0.00073646        0.00032377
       4         -1.911044        2.000000        0.00128045        0.00306578        0.00458532        0.00260190        0.00027510        0.00057414        0.00046924        0.00073923        0.00031254
       5         -1.073322        2.000000        0.00299771        0.00236361        0.00058070        0.00275952        0.00027109        0.00065309        0.00035009        0.00015935        0.00024053
       6         -1.073319        2.000000        0.00332204        0.00235113        0.00051249        0.00206634        0.00027474        0.00065445        0.00034084        0.00015955        0.00025710
       7         -1.073188        2.000000        0.00299223        0.00182971        0.00118406        0.00235416        0.00017262        0.00047734        0.00064487        0.00019444        0.00021702
       8         -1.073181        2.000000        0.00375497        0.00112264        0.00088017        0.00151500        0.00018712        0.00046145        0.00062649        0.00019101        0.00024385
       9         -1.072974        2.000000        0.00021293        0.00112477        0.00559072        0.00056134        0.00021410        0.00024651        0.00059605        0.00089742        0.00017601
      10         -1.072974        2.000000        0.00018624        0.00115831        0.00558515        0.00058872        0.00021250        0.00024945        0.00059883        0.00089786        0.00017543
      11         -1.072886        2.000000        0.00011736        0.00180270        0.00500418        0.00055051        0.00025573        0.00057909        0.00054594        0.00049242        0.00026849
      12         -1.072885        2.000000        0.00009417        0.00186113        0.00498892        0.00056467        0.00025517        0.00057941        0.00054952        0.00049809        0.00026724
      13         -1.069500        2.000000        0.00410675        0.00345896        0.00144456        0.00359254        0.00041558        0.00020528        0.00019243        0.00021314        0.00041001
      14         -1.069498        2.000000        0.00458562        0.00309999        0.00126494        0.00303018        0.00044504        0.00020936        0.00019039        0.00022107        0.00045384
      15         -1.068799        2.000000        0.00011115        0.00136504        0.00528152        0.00033751        0.00027304        0.00068369        0.00089002        0.00096716        0.00032866
      16         -1.068798        2.000000        0.00011613        0.00135134        0.00529179        0.00033602        0.00027298        0.00068351        0.00088976        0.00096638        0.00032841
      17         -0.860722        2.000000        0.22684771        0.03944440        0.01804281        0.05497875        0.00814304        0.01473069        0.01230835        0.00770754        0.00894189
      18         -0.860649        2.000000        0.19949954        0.05573038        0.02352797        0.08846748        0.00731207        0.01498152        0.01302367        0.00801417        0.00678014
      19         -0.856397        2.000000        0.20732255        0.02169045        0.01507054        0.03819695        0.00632691        0.01510532        0.01289476        0.00765282        0.00871550
      20         -0.856302        2.000000        0.19103652        0.03206820        0.01848895        0.05774318        0.00518819        0.01516207        0.01349849        0.00788014        0.00628924
      21         -0.855505        2.000000        0.20651748        0.03924479        0.01558182        0.02104525        0.01059584        0.01321680        0.01304247        0.00929272        0.00468777
      22         -0.855488        2.000000        0.20488198        0.04061753        0.01591030        0.02244358        0.01038010        0.01324345        0.01312491        0.00929397        0.00433310
      23         -0.854731        2.000000        0.22580445        0.02678977        0.01706146        0.05311487        0.00715328        0.01428653        0.01040372        0.00781956        0.00979612
      24         -0.854641        2.000000        0.20133664        0.03983062        0.02090178        0.08153813        0.00584080        0.01425541        0.01094602        0.00802277        0.00667319
      25         -0.853566        2.000000        0.23165791        0.02983628        0.01666868        0.03992477        0.00681619        0.01557322        0.01444137        0.00852709        0.00907708
      26         -0.853476        2.000000        0.20636001        0.04724028        0.02201781        0.06604489        0.00551201        0.01588161        0.01519155        0.00873331        0.00665402
      27         -0.852380        2.000000        0.20653576        0.07716095        0.02218700        0.03639342        0.00854090        0.01448764        0.01538103        0.00943049        0.00368291
      28         -0.852377        2.000000        0.20577931        0.07745305        0.02230213        0.03759578        0.00851591        0.01452973        0.01543094        0.00945466        0.00362128
      29         -0.778209        2.000000        0.00015917        0.07760419        0.27705360        0.02960902        0.00706550        0.01247573        0.01723622        0.01879835        0.00750931
      30         -0.778199        2.000000        0.00012111        0.07754655        0.27707417        0.02918682        0.00706097        0.01253163        0.01732129        0.01886115        0.00743766
      31         -0.774397        2.000000        0.00033920        0.07288686        0.25469114        0.03124595        0.00727297        0.00977339        0.01469336        0.01601713        0.00604286
      32         -0.774382        2.000000        0.00024090        0.07295523        0.25450549        0.03145257        0.00728035        0.00978913        0.01474807        0.01610290        0.00593784
      33         -0.773602        2.000000        0.00018215        0.07309935        0.25919767        0.02782582        0.00461030        0.01223353        0.01634047        0.01155865        0.00786036
      34         -0.773598        2.000000        0.00015128        0.07313981        0.25925768        0.02787379        0.00460883        0.01224178        0.01636435        0.01156034        0.00784293
      35         -0.771037        2.000000        0.00040751        0.07409621        0.26544758        0.03233845        0.00723918        0.00939180        0.01389141        0.01746135        0.00621597
      36         -0.771021        2.000000        0.00030323        0.07413454        0.26518658        0.03251160        0.00723833        0.00946126        0.01399352        0.01760460        0.00608234
      37         -0.770364        2.000000        0.00022288        0.07431227        0.26872794        0.02919198        0.00545516        0.01204747        0.01565302        0.01322739        0.00698504
      38         -0.770357        2.000000        0.00016281        0.07441323        0.26877017        0.02926290        0.00542221        0.01209175        0.01571419        0.01321095        0.00695547
      39         -0.769525        2.000000        0.00044802        0.07559889        0.27234693        0.02933036        0.00550651        0.01249068        0.01656829        0.01375898        0.00757534
      40         -0.769518        2.000000        0.00038366        0.07561930        0.27207839        0.02945623        0.00553960        0.01248016        0.01658114        0.01382812        0.00751031
      41         -0.681944        2.000000        0.53307251        0.01440889        0.12954996        0.24478247        0.00114275        0.00894358        0.00663614        0.00370776        0.03757308
      42         -0.681324        2.000000        0.53723120        0.09612060        0.11780097        0.17116877        0.01058637        0.01766355        0.00502902        0.00510159        0.01932399
      43         -0.681228        2.000000        0.52615789        0.13186645        0.12544203        0.13713763        0.01489387        0.01371933        0.00587786        0.00692866        0.01725780
      44         -0.681113        2.000000        0.53164237        0.18008082        0.14819723        0.06305605        0.02426201        0.00530318        0.00826239        0.00839313        0.01181571
      45         -0.679125        2.000000        0.53081213        0.17662511        0.14333454        0.06984251        0.02961329        0.00472988        0.00721431        0.00713166        0.00999488
      46         -0.679124        2.000000        0.53098877        0.17650786        0.14344992        0.06977435        0.02974205        0.00468608        0.00720713        0.00715571        0.00997828
      47         -0.582849        2.000000        0.38132189        0.08265684        0.09374082        0.28497457        0.00783448        0.01343865        0.02383770        0.03120554        0.01063850
      48         -0.581926        2.000000        0.38365747        0.13476809        0.12961638        0.19555741        0.00799638        0.01897545        0.03071092        0.02365166        0.00775904
      49         -0.581633        2.000000        0.38418141        0.10325856        0.06845923        0.28917496        0.01331367        0.01910074        0.01571254        0.02598571        0.01484784
      50         -0.581307        2.000000        0.38317802        0.21463854        0.12815047        0.11990422        0.01044794        0.02814036        0.02861343        0.01422970        0.00785904
      51         -0.579311        2.000000        0.38380796        0.24566684        0.11122563        0.10516422        0.00841996        0.03088321        0.03022124        0.01317125        0.00644807
      52         -0.579303        2.000000        0.38360240        0.24543415        0.11113174        0.10566979        0.00841580        0.03088878        0.03021307        0.01318669        0.00647528
      53         -0.542292        2.000000        0.49191977        0.01885499        0.20708069        0.16689770        0.00454381        0.00359665        0.03364661        0.04913273        0.02105318
      54         -0.541888        2.000000        0.49203155        0.08125959        0.14907176        0.16262468        0.01945716        0.01091753        0.01834471        0.03565596        0.02757527
      55         -0.541788        2.000000        0.49262629        0.14223790        0.19424509        0.05586962        0.01480866        0.03962854        0.03190329        0.01421115        0.01124032
      56         -0.541755        2.000000        0.49245217        0.14290768        0.19840773        0.05154617        0.01389655        0.03884332        0.03754944        0.01408411        0.00743184
      57         -0.539214        2.000000        0.49197214        0.13993600        0.21023795        0.04389479        0.01471490        0.03833767        0.03572157        0.01531210        0.00744088
      58         -0.539208        2.000000        0.49213415        0.13981540        0.20995466        0.04403223        0.01474226        0.03831910        0.03570934        0.01538209        0.00748899
      59         -0.491920        2.000000        0.26774218        0.16971497        0.08456015        0.27624839        0.00140378        0.00405337        0.00494595        0.00361729        0.00153681
      60         -0.488624        2.000000        0.26446094        0.16933750        0.09749306        0.28253051        0.00160529        0.00443740        0.00562266        0.00427962        0.00183094
      61         -0.487887        2.000000        0.26481225        0.30872440        0.09026793        0.13978799        0.00170500        0.00611229        0.00569319        0.00247173        0.00094015
      62         -0.487356        2.000000        0.26744418        0.14056834        0.07566682        0.34888399        0.00160670        0.00357223        0.00474038        0.00447696        0.00209091
      63         -0.487178        2.000000        0.26420155        0.28606901        0.09850023        0.16144831        0.00186565        0.00608379        0.00557697        0.00272240        0.00109311
      64         -0.486383        2.000000        0.26867472        0.21272050        0.10422260        0.24320802        0.00186003        0.00510488        0.00559363        0.00393039        0.00190994
      65         -0.412826        2.000000        0.22182581        0.09424922        0.05977897        0.16722765        0.00403830        0.00992667        0.01091288        0.00851883        0.00632240
      66         -0.406033        2.000000        0.20507781        0.10623011        0.06502721        0.17868858        0.00428495        0.01105833        0.01198189        0.00938522        0.00652922
      67         -0.399791        2.000000        0.20840218        0.01636710        0.04538558        0.33654685        0.00353771        0.00602416        0.01279769        0.01277240        0.01107192
      68         -0.399597        2.000000        0.20851753        0.22472555        0.09668400        0.07396321        0.00593041        0.01746670        0.01270823        0.00694881        0.00301931
      69         -0.398045        2.000000        0.20864004        0.22334708        0.07529760        0.09919866        0.00789777        0.01983267        0.01393275        0.00347677        0.00108083
      70         -0.397928        2.000000        0.20781922        0.22415931        0.07739074        0.10875131        0.00800068        0.01943169        0.01391542        0.00397733        0.00164366
      71         -0.377593        2.000000        0.19660713        0.11062453        0.11730618        0.13144337        0.00190808        0.00369338        0.00319347        0.00284214        0.00195191
      72         -0.373643        2.000000        0.20409953        0.11848869        0.28536625        0.19023292        0.00481354        0.00550506        0.00791131        0.01730375        0.00415206
      73         -0.372008        2.000000        0.21759970        0.17705606        0.27124743        0.16847375        0.00430694        0.00724380        0.01053245        0.01028941        0.00372239
      74         -0.371017        2.000000        0.21195954        0.10820187        0.18437111        0.25905954        0.00584843        0.00339224        0.00342873        0.01417467        0.00339650
      75         -0.370584        2.000000        0.20235062        0.29796686        0.16057774        0.06298295        0.00266617        0.01276400        0.00396516        0.00508463        0.00380932
      76         -0.370142        2.000000        0.22560850        0.20548718        0.27399945        0.13466726        0.00472996        0.00988882        0.00922103        0.00831276        0.00402642
      77         -0.369862        2.000000        0.19951291        0.07614292        0.35553419        0.06314217        0.00235786        0.00306885        0.01385889        0.00449816        0.00153036
      78         -0.369824        2.000000        0.22088676        0.20752706        0.35332497        0.07492327        0.00285470        0.00809506        0.01367020        0.00755945        0.00421283
      79         -0.367494        2.000000        0.20679866        0.14073738        0.31250134        0.06106683        0.00239086        0.00887538        0.01006105        0.00329004        0.00284437
      80         -0.367356        2.000000        0.19308758        0.11993404        0.23483372        0.09258221        0.00244464        0.00532211        0.00737770        0.00318425        0.00236326
      81         -0.363112        2.000000        0.18318168        0.11919841        0.21194557        0.12524684        0.00167602        0.00628029        0.00752225        0.00294550        0.00292057
      82         -0.360765        2.000000        0.18464888        0.13571720        0.24569611        0.14368092        0.00218667        0.00656077        0.00737887        0.00360596        0.00360923
      83         -0.337685        2.000000        0.00860373        0.07923334        0.16495376        0.08672324        0.00273903        0.00307755        0.00398179        0.00900461        0.00201392
      84         -0.328703        2.000000        0.00368511        0.09837400        0.19911549        0.10415982        0.00288117        0.00308936        0.00423627        0.00659799        0.00222967
      85         -0.325286        2.000000        0.04717344        0.08658772        0.09805801        0.16404108        0.00162191        0.00427247        0.00536176        0.00418826        0.00223189
      86         -0.324855        2.000000        0.04412867        0.15298151        0.09446997        0.19723793        0.00309021        0.00826718        0.00857694        0.00397458        0.00405059
      87         -0.323587        2.000000        0.04959612        0.17114694        0.19300694        0.18932326        0.00312223        0.00813429        0.00844372        0.00488832        0.00360057
      88         -0.319374        2.000000        0.02260671        0.11597852        0.15206474        0.15925508        0.00358880        0.00334427        0.00407077        0.00865217        0.00345567
      89         -0.317872        2.000000        0.00518421        0.14456190        0.25785988        0.14434144        0.00336381        0.00486313        0.00605602        0.00734032        0.00303559
      90         -0.317700        2.000000        0.03598458        0.14306589        0.14728569        0.20422352        0.00276993        0.00625284        0.00678156        0.00551137        0.00334279
      91         -0.315852        2.000000        0.04543928        0.12584135        0.07755888        0.15897213        0.00276646        0.00672736        0.00655151        0.00353999        0.00204893
      92         -0.315094        2.000000        0.00370397        0.20239798        0.27785435        0.09584486        0.00193383        0.00671470        0.00785806        0.00468969        0.00314021
      93         -0.314586        2.000000        0.00173903        0.21295552        0.30013538        0.07408857        0.00199695        0.00702959        0.00801281        0.00522499        0.00310024
      94         -0.314355        2.000000        0.03822615        0.21256067        0.15800264        0.12190900        0.00339608        0.00816158        0.00748732        0.00315200        0.00238791
      95         -0.313631        2.000000        0.03449440        0.19397400        0.14229548        0.14887530        0.00258879        0.00735096        0.00892949        0.00320791        0.00186096
      96         -0.313390        2.000000        0.03856042        0.11631081        0.07126767        0.21160507        0.00235798        0.00749037        0.00749902        0.00242776        0.00430908
      97         -0.312016        2.000000        0.04538595        0.07331928        0.16382144        0.08523692        0.00147465        0.00423142        0.00468737        0.00338833        0.00237690
      98         -0.311765        2.000000        0.03756554        0.18521223        0.08260718        0.13695336        0.00306827        0.00632040        0.01065871        0.00309596        0.00115765
      99         -0.311537        2.000000        0.01862640        0.16886357        0.19065640        0.20410017        0.00269303        0.01018456        0.00636463        0.00510496        0.00364083
     100         -0.310579        2.000000        0.03321271        0.05137047        0.14597810        0.06092620        0.00099950        0.00238934        0.00282276        0.00224729        0.00167723
     101         -0.306283        2.000000        0.04349031        0.13333115        0.06627585        0.07549616        0.00318460        0.00581591        0.00488889        0.00300440        0.00102734
     102         -0.303459        2.000000        0.03851040        0.05758713        0.15042339        0.03403241        0.00161530        0.00243196        0.00308349        0.00330942        0.00161050
     103         -0.300071        2.000000        0.04323800        0.12422618        0.05036175        0.14885376        0.00203274        0.00749339        0.00732557        0.00260701        0.00184230
     104         -0.296049        2.000000        0.04655527        0.07387660        0.13814371        0.03633882        0.00212026        0.00472560        0.00488262        0.00411453        0.00160295
     105         -0.289595        2.000000        0.02628460        0.04116561        0.12941605        0.01956368        0.00132760        0.00186956        0.00259972        0.00305653        0.00117107
     106         -0.282768        2.000000        0.00482412        0.17688502        0.32620771        0.19005754        0.00294667        0.00308179        0.00481424        0.00525782        0.00244365
     107         -0.282516        2.000000        0.01978104        0.08898633        0.16697010        0.04818863        0.00172259        0.00247325        0.00286679        0.00331689        0.00195250
     108         -0.278877        2.000000        0.00538055        0.17857539        0.26192660        0.16633137        0.00331657        0.00380633        0.00395284        0.00426257        0.00163554
     109         -0.278703        2.000000        0.00298469        0.27372959        0.10877091        0.17195008        0.00216930        0.00184634        0.00242385        0.00392350        0.00251754
     110         -0.278573        2.000000        0.00218795        0.13298774        0.16167801        0.18714946        0.00185632        0.00246899        0.00210680        0.00185230        0.00568071
     111         -0.276127        2.000000        0.00757020        0.10732935        0.09542012        0.16925191        0.00317248        0.00244450        0.00182229        0.00222674        0.00623341
     112         -0.274162        2.000000        0.00282347        0.13126594        0.25123325        0.14717336        0.00214788        0.00229046        0.00364785        0.00468825        0.00150331
     113         -0.273004        2.000000        0.00277056        0.21735383        0.06495334        0.14904837        0.01171016        0.00245635        0.00142982        0.00463473        0.00576820
     114         -0.272765        2.000000        0.00066122        0.30288400        0.08776312        0.18963303        0.00209492        0.00264456        0.00267433        0.00266986        0.00231907
     115         -0.272471        2.000000        0.00124142        0.22851068        0.13773791        0.19678779        0.00238690        0.00315272        0.00448755        0.00264700        0.00302397
     116         -0.271676        2.000000        0.00087585        0.26391295        0.08721604        0.25307931        0.00165355        0.00247007        0.00237586        0.00336150        0.00212803
     117         -0.268085        2.000000        0.00707858        0.13951418        0.06813583        0.33560891        0.00327085        0.00270810        0.00270064        0.00584304        0.00264323
     118         -0.266931        2.000000        0.00705643        0.14424579        0.07245065        0.36473987        0.00177745        0.00247464        0.00284655        0.00547697        0.00192797
     119         -0.266480        2.000000        0.00055016        0.22501315        0.06637076        0.16701277        0.01084514        0.00289312        0.00181073        0.00468964        0.00634513
     120         -0.265690        2.000000        0.00410167        0.17448248        0.14873788        0.13078568        0.00555732        0.00435915        0.00377635        0.00407153        0.00603843
     121         -0.265060        2.000000        0.00400125        0.14050127        0.21285749        0.11630288        0.00139101        0.00236113        0.00280983        0.00339727        0.00188586
     122         -0.262403        2.000000        0.00121073        0.21646016        0.07118893        0.20311434        0.00998619        0.00270934        0.00140607        0.00473650        0.00576131
     123         -0.255798        2.000000        0.00183986        0.17862129        0.13267349        0.21912971        0.00309734        0.00471285        0.00461611        0.00388798        0.00836217
     124         -0.252146        2.000000        0.00092529        0.18036944        0.10385497        0.20736032        0.00649394        0.00390930        0.00317732        0.00442382        0.00837214
     125         -0.218832        2.000000        0.00069906        0.38112736        0.10508507        0.25973703        0.03374691        0.00915478        0.00669698        0.01461117        0.01856281
     126         -0.215221        2.000000        0.00012290        0.41276687        0.11440379        0.21105589        0.03790558        0.00868367        0.00663513        0.01566700        0.01605968
     127         -0.214454        2.000000        0.00018476        0.24916704        0.07503257        0.40578852        0.02389691        0.01060582        0.00487009        0.01365641        0.03114974
     128         -0.213649        2.000000        0.00041095        0.15961229        0.04197885        0.53013337        0.01378737        0.00984196        0.00358716        0.01177396        0.04331840
     129         -0.213246        2.000000        0.00018524        0.21002225        0.05927735        0.43992493        0.01945498        0.00921035        0.00394916        0.01194521        0.03516894
     130         -0.212385        2.000000        0.00018798        0.33042057        0.10775485        0.26831175        0.03176145        0.00963024        0.00588198        0.01430453        0.01923750
     131         -0.180286        2.000000        0.06412103        0.05474507        0.11334608        0.04263332        0.01713011        0.03810222        0.03803727        0.02267401        0.01782332
     132         -0.172520        2.000000        0.05268887        0.06459510        0.09458576        0.03843831        0.02124369        0.04638476        0.03700796        0.01668893        0.00936889
     133         -0.168439        2.000000        0.06927516        0.06809953        0.13072963        0.06868778        0.01820249        0.03051616        0.03432034        0.02820563        0.02530512
     134         -0.161912        2.000000        0.05969040        0.09179455        0.15634227        0.06447999        0.02332014        0.03524170        0.02691532        0.02801596        0.01563153
     135         -0.161678        2.000000        0.00551851        0.00851932        0.00711381        0.01101049        0.01575668        0.01271363        0.01596692        0.03180678        0.01302660
     136         -0.161610        2.000000        0.06122472        0.08923033        0.15718098        0.07689224        0.01827149        0.03347044        0.02806512        0.02792952        0.01966303
     137         -0.160834        2.000000        0.01306206        0.02141051        0.03296445        0.01379690        0.00949725        0.01820511        0.02566680        0.02648320        0.01330114
     138         -0.160613        2.000000        0.00768954        0.01263888        0.01231891        0.01656855        0.01205442        0.01333452        0.02329326        0.03214403        0.00896333
     139         -0.159885        2.000000        0.00165048        0.00178055        0.00304792        0.00147774        0.00862032        0.01928408        0.02242897        0.02322621        0.01247737
     140         -0.154980        2.000000        0.04290400        0.07048482        0.08026496        0.04825839        0.01888754        0.03213775        0.03431190        0.02614519        0.01134201
     141         -0.154404        2.000000        0.07963971        0.10487614        0.18755308        0.12862278        0.01275276        0.03012694        0.03758350        0.02529863        0.01982068
     142         -0.150524        2.000000        0.03521295        0.03582948        0.01693069        0.04537744        0.00926876        0.04461385        0.04492018        0.01859587        0.01046766
     143         -0.145786        2.000000        0.02388368        0.02374032        0.01205376        0.04367601        0.01393764        0.02096767        0.02027142        0.03756423        0.01970599
     144         -0.140075        2.000000        0.00738154        0.02510435        0.02770979        0.02550331        0.01082794        0.02065105        0.02719746        0.02885895        0.01249657