# Projected DOS for atomic kind Sc at iteration step i = 0, E(Fermi) =    -0.079165 a.u.
#     MO Eigenvalue [a.u.]      Occupation                 s                py                pz                px               d-2               d-1                d0               d+1               d+2               f-3               f-2               f-1                f0               f+1               f+2               f+3
       1         -1.911178        2.000000        0.85034780        0.00000367        0.00000089        0.00001223        0.00000053        0.00099666        0.00099935        0.00000058        0.00005722        0.00000021        0.00000009        0.00000012        0.00000008        0.00000010        0.00000023        0.00000004
       2         -1.911178        2.000000        0.84946822        0.00000409        0.00000100        0.00001362        0.00000105        0.00100117        0.00105892        0.00000015        0.00006285        0.00000020        0.00000008        0.00000012        0.00000009        0.00000011        0.00000021        0.00000004
       3         -1.911044        2.000000        0.84978617        0.00000312        0.00000108        0.00001246        0.00000125        0.00094847        0.00105931        0.00000014        0.00004776        0.00000010        0.00000009        0.00000018        0.00000010        0.00000015        0.00000033        0.00000004
       4         -1.911044        2.000000        0.84904776        0.00000349        0.00000119        0.00001381        0.00000064        0.00098275        0.00107456        0.00000057        0.00005652        0.00000009        0.00000009        0.00000017        0.00000009        0.00000013        0.00000032        0.00000004
       5         -1.073322        2.000000        0.00000135        0.37851783        0.11405540        0.43503592        0.00000053        0.00000112        0.00001039        0.00000312        0.00000960        0.00003565        0.00010040        0.00002345        0.00002571        0.00006477        0.00007550        0.00004055
       6         -1.073319        2.000000        0.00000131        0.38378986        0.11556593        0.42877995        0.00000068        0.00000099        0.00001083        0.00000336        0.00001081        0.00003593        0.00010306        0.00002306        0.00002621        0.00006591        0.00007643        0.00004118
       7         -1.073188        2.000000        0.00002684        0.34255296        0.08931875        0.49610337        0.00000486        0.00012207        0.00012164        0.00000221        0.00001183        0.00004368        0.00005355        0.00005198        0.00004391        0.00007750        0.00007978        0.00002894
       8         -1.073181        2.000000        0.00002797        0.33750464        0.08807195        0.50370937        0.00000527        0.00013331        0.00013350        0.00000249        0.00001299        0.00004627        0.00005460        0.00005502        0.00004571        0.00007989        0.00008423        0.00002940
       9         -1.072974        2.000000        0.00000634        0.25598151        0.03076239        0.63822134        0.00000152        0.00001090        0.00002029        0.00000280        0.00000786        0.00002315        0.00001258        0.00002113        0.00003218        0.00004817        0.00003892        0.00001866
      10         -1.072974        2.000000        0.00000568        0.26011954        0.03158587        0.63322675        0.00000142        0.00001026        0.00002070        0.00000282        0.00000895        0.00002301        0.00001312        0.00002092        0.00003183        0.00004816        0.00003870        0.00001860
      11         -1.072886        2.000000        0.00002491        0.53649987        0.11072914        0.27782503        0.00000413        0.00005950        0.00008401        0.00000223        0.00000535        0.00001597        0.00004971        0.00001530        0.00000812        0.00003570        0.00003305        0.00003199
      12         -1.072885        2.000000        0.00002297        0.53195134        0.11007793        0.28300382        0.00000469        0.00006222        0.00008563        0.00000241        0.00000541        0.00001611        0.00004912        0.00001562        0.00000833        0.00003572        0.00003318        0.00003135
      13         -1.069500        2.000000        0.00000001        0.18041740        0.74647517        0.00296469        0.00003157        0.00002255        0.00002792        0.00013318        0.00000990        0.00000082        0.00004916        0.00012076        0.00003427        0.00000809        0.00001441        0.00015740
      14         -1.069498        2.000000        0.00000001        0.18042799        0.74703190        0.00291436        0.00003169        0.00002259        0.00002802        0.00013376        0.00000979        0.00000089        0.00005061        0.00012140        0.00003490        0.00000806        0.00001493        0.00016097
      15         -1.068799        2.000000        0.00000001        0.16011530        0.76629875        0.00256874        0.00002492        0.00001638        0.00002017        0.00009718        0.00000906        0.00000034        0.00003138        0.00007141        0.00002043        0.00000601        0.00001029        0.00008967
      16         -1.068798        2.000000        0.00000001        0.16013432        0.76629086        0.00256542        0.00002487        0.00001638        0.00002013        0.00009698        0.00000911        0.00000033        0.00003132        0.00007144        0.00002048        0.00000599        0.00001029        0.00008977
      17         -0.860722        2.000000        0.09681918        0.00003241        0.00001212        0.00012615        0.00125258        0.00727512        0.00628011        0.00157689        0.00052165        0.00000621        0.00002002        0.00001047        0.00001829        0.00003924        0.00001244        0.00000296
      18         -0.860649        2.000000        0.08532640        0.00003184        0.00001172        0.00012345        0.00084048        0.00728609        0.00653868        0.00124554        0.00041501        0.00000591        0.00001861        0.00000998        0.00001711        0.00003675        0.00001187        0.00000277
      19         -0.856397        2.000000        0.00005390        0.00003738        0.00066286        0.00000867        0.02668058        0.01767525        0.01552410        0.07918037        0.03955099        0.00000241        0.00000934        0.00003323        0.00004550        0.00000834        0.00003354        0.00003179
      20         -0.856302        2.000000        0.00005169        0.00003816        0.00064188        0.00000900        0.02540123        0.01667474        0.01477653        0.07708316        0.03678469        0.00000228        0.00000923        0.00003254        0.00004413        0.00000823        0.00003280        0.00003093
      21         -0.855505        2.000000        0.00288047        0.00003036        0.00000555        0.00005749        0.03889531        0.03783736        0.04574781        0.03253402        0.02329496        0.00005427        0.00001349        0.00001062        0.00001821        0.00003043        0.00001648        0.00000095
      22         -0.855488        2.000000        0.00296826        0.00002960        0.00000592        0.00005611        0.03864997        0.03797027        0.04580182        0.03217618        0.02315012        0.00005454        0.00001339        0.00001074        0.00001825        0.00003044        0.00001629        0.00000100
      23         -0.854731        2.000000        0.00000202        0.02247199        0.06670362        0.00599269        0.00002849        0.00004053        0.00008907        0.00014570        0.00003153        0.00051262        0.00391620        0.00233879        0.00266807        0.00078400        0.00228599        0.00615000
      24         -0.854641        2.000000        0.00000169        0.02104605        0.06461595        0.00522865        0.00003031        0.00004030        0.00008551        0.00014511        0.00002670        0.00049230        0.00380642        0.00236581        0.00261511        0.00073862        0.00222466        0.00604920
      25         -0.853566        2.000000        0.00048144        0.01795062        0.00461788        0.05583524        0.00037602        0.00219391        0.00249373        0.00035910        0.00066929        0.00309383        0.00258617        0.00385167        0.00215581        0.00348425        0.00548542        0.00122153
      26         -0.853476        2.000000        0.00041194        0.01635020        0.00422632        0.05141322        0.00035663        0.00201511        0.00229133        0.00034405        0.00063171        0.00303131        0.00252537        0.00377999        0.00210744        0.00341073        0.00537205        0.00119055
      27         -0.852380        2.000000        0.00000092        0.03987852        0.02060154        0.01590644        0.00040342        0.00030118        0.00020231        0.00066080        0.00057980        0.00062184        0.00424707        0.00354085        0.00170104        0.00523624        0.00118012        0.00422496
      28         -0.852377        2.000000        0.00000091        0.03978457        0.02034844        0.01582824        0.00039428        0.00029557        0.00019825        0.00064543        0.00055893        0.00062391        0.00426953        0.00349540        0.00171319        0.00525578        0.00119090        0.00420297
      29         -0.778209        2.000000        0.03744984        0.00001765        0.00000240        0.00005501        0.00001364        0.00346844        0.00403374        0.00002613        0.00032918        0.00000095        0.00000524        0.00000035        0.00000266        0.00000937        0.00000530        0.00000050
      30         -0.778199        2.000000        0.03754004        0.00002177        0.00000308        0.00006777        0.00001233        0.00348778        0.00404321        0.00002580        0.00032489        0.00000093        0.00000511        0.00000032        0.00000258        0.00000921        0.00000523        0.00000050
      31         -0.774397        2.000000        0.00000753        0.00003350        0.00004309        0.00000734        0.01152841        0.00800203        0.00602500        0.03080037        0.02125214        0.00000039        0.00000244        0.00000193        0.00000185        0.00000170        0.00000045        0.00001952
      32         -0.774382        2.000000        0.00000743        0.00003427        0.00004249        0.00000770        0.01155636        0.00801889        0.00603697        0.03090203        0.02131875        0.00000039        0.00000247        0.00000210        0.00000184        0.00000170        0.00000043        0.00001963
      33         -0.773602        2.000000        0.00008048        0.00000462        0.00000024        0.00000339        0.02158087        0.01410005        0.01561893        0.01312378        0.01008117        0.00002821        0.00000402        0.00000788        0.00000448        0.00000712        0.00001235        0.00000286
      34         -0.773598        2.000000        0.00007481        0.00000488        0.00000023        0.00000383        0.02165901        0.01410258        0.01563565        0.01312765        0.01010066        0.00002805        0.00000402        0.00000783        0.00000448        0.00000714        0.00001226        0.00000286
      35         -0.771037        2.000000        0.00010055        0.00843783        0.00213352        0.03616011        0.00001983        0.00029854        0.00041335        0.00002189        0.00003494        0.00351614        0.00229467        0.00331939        0.00228380        0.00250993        0.00649791        0.00081731
      36         -0.771021        2.000000        0.00012511        0.00845738        0.00213790        0.03629034        0.00001921        0.00028801        0.00040057        0.00001984        0.00003398        0.00352423        0.00230022        0.00332859        0.00228918        0.00251789        0.00651271        0.00081829
      37         -0.770364        2.000000        0.00000053        0.02834663        0.00756710        0.00967508        0.00000981        0.00001178        0.00000884        0.00001597        0.00002070        0.00090478        0.00614297        0.00021115        0.00217405        0.00587215        0.00235180        0.00353283
      38         -0.770357        2.000000        0.00000066        0.02844385        0.00750483        0.00971121        0.00001033        0.00001182        0.00000869        0.00001470        0.00002228        0.00090392        0.00614341        0.00022420        0.00215965        0.00589980        0.00233636        0.00352199
      39         -0.769525        2.000000        0.00000035        0.00782579        0.02879323        0.00075066        0.00002335        0.00001392        0.00001756        0.00008280        0.00000803        0.00001431        0.00259763        0.00842336        0.00197749        0.00082572        0.00068012        0.00934537
      40         -0.769518        2.000000        0.00000039        0.00776058        0.02886586        0.00070548        0.00002376        0.00001412        0.00001763        0.00008253        0.00000900        0.00001447        0.00260264        0.00840922        0.00199527        0.00080371        0.00069611        0.00936254
      41         -0.681944        2.000000        0.00048331        0.00001084        0.00004653        0.00017963        0.00004073        0.00001422        0.00039440        0.00015537        0.00099167        0.00001493        0.00001988        0.00000075        0.00001617        0.00001046        0.00003663        0.00000357
      42         -0.681324        2.000000        0.00069898        0.00002442        0.00005933        0.00017535        0.00024010        0.00026177        0.00030400        0.00017390        0.00021361        0.00001628        0.00002265        0.00000048        0.00002399        0.00000992        0.00003644        0.00000547
      43         -0.681228        2.000000        0.00007138        0.00002040        0.00003541        0.00007569        0.00062850        0.00040023        0.00017031        0.00023634        0.00096582        0.00000812        0.00001234        0.00000057        0.00000695        0.00000379        0.00002251        0.00000303
      44         -0.681113        2.000000        0.00000494        0.00027581        0.00016234        0.00011538        0.00015528        0.00020127        0.00013827        0.00003586        0.00001083        0.00001175        0.00004265        0.00006653        0.00003201        0.00005915        0.00001959        0.00005005
      45         -0.679125        2.000000        0.00042121        0.00000017        0.00000005        0.00000074        0.00093003        0.00047782        0.00025980        0.00030931        0.00021733        0.00000022        0.00000002        0.00000007        0.00000003        0.00000003        0.00000010        0.00000001
      46         -0.679124        2.000000        0.00040443        0.00000012        0.00000003        0.00000045        0.00083224        0.00051209        0.00028986        0.00028576        0.00019275        0.00000019        0.00000002        0.00000006        0.00000004        0.00000002        0.00000012        0.00000001
      47         -0.582849        2.000000        0.00215883        0.00003015        0.00002276        0.00009004        0.00024776        0.00051004        0.00078435        0.00037173        0.00040604        0.00001244        0.00001661        0.00000011        0.00000496        0.00000891        0.00002505        0.00000427
      48         -0.581926        2.000000        0.00018096        0.00006436        0.00043654        0.00021826        0.00038962        0.00044246        0.00034016        0.00069986        0.00057247        0.00005448        0.00012534        0.00000045        0.00010652        0.00002934        0.00014067        0.00006475
      49         -0.581633        2.000000        0.00000466        0.00032677        0.00100642        0.00037639        0.00021187        0.00009982        0.00010428        0.00041103        0.00049127        0.00010141        0.00027455        0.00002187        0.00019053        0.00005778        0.00030459        0.00021520
      50         -0.581307        2.000000        0.00003180        0.00066873        0.00042485        0.00080366        0.00016342        0.00012710        0.00016390        0.00005291        0.00001629        0.00018193        0.00026061        0.00045942        0.00019820        0.00042533        0.00030002        0.00026878
      51         -0.579311        2.000000        0.00000000        0.00098459        0.00098344        0.00036293        0.00001012        0.00000635        0.00000135        0.00000310        0.00003404        0.00004996        0.00035154        0.00042446        0.00016626        0.00045302        0.00009620        0.00047058
      52         -0.579303        2.000000        0.00000001        0.00101515        0.00086339        0.00038088        0.00001089        0.00000693        0.00000130        0.00000342        0.00003535        0.00005499        0.00037806        0.00039500        0.00017965        0.00048389        0.00010965        0.00045243
      53         -0.542292        2.000000        0.00005278        0.00000490        0.00001179        0.00003235        0.00001429        0.00000288        0.00008923        0.00004608        0.00026508        0.00000743        0.00000684        0.00000009        0.00000861        0.00000186        0.00001620        0.00000266
      54         -0.541888        2.000000        0.00006094        0.00000128        0.00001382        0.00002283        0.00000419        0.00000669        0.00012947        0.00005089        0.00018769        0.00000785        0.00000603        0.00000080        0.00000957        0.00000393        0.00001903        0.00000127
      55         -0.541788        2.000000        0.00005252        0.00001486        0.00000166        0.00000297        0.00021098        0.00014319        0.00004459        0.00005685        0.00015667        0.00000013        0.00000036        0.00000072        0.00000020        0.00000028        0.00000102        0.00000230
      56         -0.541755        2.000000        0.00000712        0.00001862        0.00004053        0.00000310        0.00009930        0.00011957        0.00002360        0.00004208        0.00004106        0.00000168        0.00001582        0.00002392        0.00000735        0.00001605        0.00000260        0.00001767
      57         -0.539214        2.000000        0.00000000        0.00001710        0.00003603        0.00000750        0.00000477        0.00000347        0.00000092        0.00000280        0.00001584        0.00000171        0.00001507        0.00002071        0.00000452        0.00001999        0.00000227        0.00001357
      58         -0.539208        2.000000        0.00000000        0.00001670        0.00003921        0.00000710        0.00000217        0.00000158        0.00000043        0.00000100        0.00000798        0.00000154        0.00001416        0.00002204        0.00000437        0.00001896        0.00000192        0.00001408
      59         -0.491920        2.000000        0.01448247        0.00000527        0.00000101        0.00001489        0.00015364        0.00074175        0.00070791        0.00018932        0.00011315        0.00000859        0.00001596        0.00000332        0.00000691        0.00002260        0.00000546        0.00000162
      60         -0.488624        2.000000        0.00003663        0.00001830        0.00002335        0.00001358        0.00203201        0.00137000        0.00117608        0.00569831        0.00326479        0.00000177        0.00000933        0.00000072        0.00001585        0.00000546        0.00000158        0.00000513
      61         -0.487887        2.000000        0.00569776        0.00000110        0.00000023        0.00000399        0.00229211        0.00199894        0.00230675        0.00185388        0.00134381        0.00000104        0.00000058        0.00000043        0.00000038        0.00000094        0.00000152        0.00000024
      62         -0.487356        2.000000        0.00003510        0.00229935        0.00540419        0.00138326        0.00005814        0.00008169        0.00007944        0.00009531        0.00008031        0.00027290        0.00125326        0.00024576        0.00079238        0.00040607        0.00089353        0.00138328
      63         -0.487178        2.000000        0.00087276        0.00005531        0.00010277        0.00001529        0.00335290        0.00278872        0.00312038        0.00246115        0.00178810        0.00000032        0.00003022        0.00000483        0.00002020        0.00000435        0.00001438        0.00002880
      64         -0.486383        2.000000        0.00001916        0.00229131        0.00064213        0.00540667        0.00009164        0.00002277        0.00007245        0.00004352        0.00005039        0.00079570        0.00077106        0.00114241        0.00060724        0.00106747        0.00143353        0.00045919
      65         -0.412826        2.000000        0.03778885        0.00001071        0.00000523        0.00004875        0.00431388        0.00272185        0.00326407        0.00322049        0.00238293        0.00009533        0.00010944        0.00005146        0.00007455        0.00013584        0.00007381        0.00001850
      66         -0.406033        2.000000        0.00000882        0.00021696        0.00028696        0.00005640        0.00948067        0.00656321        0.00503624        0.02131109        0.01738902        0.00000182        0.00001301        0.00001047        0.00005367        0.00001936        0.00001456        0.00000051
      67         -0.399791        2.000000        0.00015160        0.00157544        0.00539403        0.02679992        0.00016513        0.00003770        0.00001002        0.00044266        0.00007131        0.00248733        0.00186129        0.00031428        0.00252403        0.00043163        0.00576823        0.00122092
      68         -0.399597        2.000000        0.00015548        0.02088493        0.00892976        0.00446150        0.00011593        0.00016436        0.00021865        0.00006572        0.00010492        0.00041447        0.00341306        0.00261221        0.00063096        0.00354579        0.00052383        0.00343991
      69         -0.398045        2.000000        0.00000001        0.01700650        0.01025128        0.00684783        0.00003310        0.00001924        0.00000412        0.00001233        0.00010690        0.00038403        0.00315364        0.00362375        0.00043417        0.00321261        0.00038060        0.00427337
      70         -0.397928        2.000000        0.00000014        0.01230843        0.01452753        0.00477834        0.00002899        0.00002293        0.00000722        0.00001358        0.00011990        0.00022379        0.00256991        0.00478488        0.00052336        0.00216260        0.00015330        0.00549089
      71         -0.377593        2.000000        0.05201768        0.00002452        0.00002136        0.00016635        0.00002098        0.00091302        0.00145698        0.00020734        0.00017340        0.00019128        0.00018195        0.00015301        0.00012858        0.00018420        0.00030560        0.00004458
      72         -0.373643        2.000000        0.01749319        0.00006055        0.00013221        0.00067375        0.00018977        0.00051324        0.00028778        0.00125118        0.00033474        0.00017727        0.00013304        0.00013897        0.00012513        0.00009672        0.00031682        0.00001686
      73         -0.372008        2.000000        0.00077134        0.00098610        0.00098224        0.00023642        0.00383498        0.00081643        0.00149205        0.00610239        0.00509958        0.00000406        0.00004877        0.00004545        0.00017809        0.00009048        0.00002161        0.00022771
      74         -0.371017        2.000000        0.00024710        0.00088487        0.00331454        0.00121276        0.00214719        0.00370151        0.00185214        0.01169910        0.00555910        0.00012528        0.00051238        0.00017441        0.00032825        0.00008244        0.00046448        0.00034745
      75         -0.370584        2.000000        0.01067835        0.00001747        0.00000338        0.00006109        0.01116389        0.00193179        0.00578438        0.00123886        0.00597447        0.00013295        0.00001907        0.00001094        0.00000366        0.00000535        0.00001037        0.00000627
      76         -0.370142        2.000000        0.00076488        0.00154472        0.00054484        0.00276874        0.00336800        0.00209276        0.00371833        0.00011177        0.00153024        0.00024064        0.00024487        0.00052249        0.00022464        0.00041062        0.00044197        0.00018192
      77         -0.369862        2.000000        0.01137568        0.00002267        0.00000552        0.00006891        0.00591685        0.00945030        0.00461739        0.00895829        0.00135856        0.00001137        0.00000427        0.00004227        0.00002072        0.00001910        0.00009371        0.00000746
      78         -0.369824        2.000000        0.00136130        0.00031368        0.00002677        0.00053336        0.00356268        0.00311655        0.00241290        0.00192267        0.00250623        0.00009542        0.00005795        0.00002135        0.00000352        0.00000228        0.00002936        0.00002870
      79         -0.367494        2.000000        0.00001432        0.00011421        0.00021873        0.00004863        0.00975719        0.00572255        0.00555673        0.00783546        0.00886418        0.00003272        0.00020464        0.00013787        0.00009601        0.00017619        0.00008803        0.00031484
      80         -0.367356        2.000000        0.00008829        0.00000734        0.00002338        0.00009050        0.01370571        0.00762413        0.00682213        0.01453597        0.01116002        0.00014685        0.00000387        0.00002251        0.00007634        0.00001622        0.00021177        0.00002155
      81         -0.363112        2.000000        0.00020356        0.00776328        0.00179692        0.02584949        0.00035600        0.00009354        0.00022825        0.00008306        0.00014124        0.00188292        0.00092989        0.00206370        0.00094834        0.00089721        0.00345206        0.00061863
      82         -0.360765        2.000000        0.00000168        0.00865060        0.01172003        0.00277789        0.00002325        0.00002062        0.00001818        0.00008223        0.00003890        0.00032202        0.00244582        0.00165312        0.00157163        0.00116983        0.00149243        0.00480747
      83         -0.337685        2.000000        0.07005211        0.00050286        0.00012984        0.00180420        0.00342367        0.00602215        0.00823081        0.00348684        0.00292170        0.00023963        0.00010651        0.00020776        0.00010110        0.00008901        0.00035564        0.00006134
      84         -0.328703        2.000000        0.00001230        0.00169518        0.00155407        0.00053739        0.01672412        0.01123601        0.00931515        0.03992155        0.02857233        0.00000744        0.00006552        0.00003519        0.00004322        0.00002956        0.00003101        0.00011258
      85         -0.325286        2.000000        0.05980910        0.00269490        0.00075535        0.01042145        0.00005995        0.00501383        0.00633169        0.00051168        0.00035943        0.00048002        0.00027497        0.00043942        0.00026286        0.00025626        0.00083412        0.00012857
      86         -0.324855        2.000000        0.03051302        0.00004498        0.00001677        0.00018997        0.00095037        0.00962965        0.01320853        0.00071605        0.00201357        0.00021397        0.00011056        0.00017657        0.00010049        0.00012823        0.00029050        0.00004770
      87         -0.323587        2.000000        0.02570204        0.00020493        0.00005643        0.00079705        0.00030606        0.00855983        0.01097961        0.00028144        0.00135232        0.00023816        0.00013602        0.00023812        0.00012892        0.00014376        0.00043673        0.00006518
      88         -0.319374        2.000000        0.00000100        0.01156209        0.01296471        0.00507935        0.00654100        0.00494115        0.00219666        0.00939147        0.01807097        0.00028736        0.00191928        0.00076843        0.00125137        0.00072663        0.00115939        0.00258894
      89         -0.317872        2.000000        0.00024486        0.00994633        0.00240200        0.03169626        0.00209105        0.00248457        0.00255583        0.00097007        0.00066885        0.00209457        0.00134636        0.00229120        0.00126985        0.00143701        0.00371973        0.00070576