# Projected DOS for atomic kind O at iteration step i = 0, E(Fermi) =    -0.079165 a.u.
#     MO Eigenvalue [a.u.]      Occupation                 s                py                pz                px               d-2               d-1                d0               d+1               d+2
       1         -1.911178        2.000000        0.01479922        0.03311679        0.03148730        0.03337210        0.00465772        0.00335612        0.00345769        0.00600323        0.00407389
       2         -1.911178        2.000000        0.01441810        0.03313193        0.03185256        0.03353979        0.00464418        0.00334621        0.00344600        0.00598225        0.00406010
       3         -1.911044        2.000000        0.01461538        0.03331133        0.03155213        0.03385754        0.00425412        0.00313966        0.00310862        0.00660015        0.00438750
       4         -1.911044        2.000000        0.01429626        0.03351408        0.03167110        0.03400181        0.00424034        0.00313136        0.00310370        0.00658435        0.00437108
       5         -1.073322        2.000000        0.01909685        0.01347436        0.00745153        0.01139411        0.00235816        0.00185772        0.00131594        0.00284013        0.00183420
       6         -1.073319        2.000000        0.01937973        0.01349985        0.00729816        0.01112491        0.00237769        0.00186633        0.00131737        0.00283692        0.00182483
       7         -1.073188        2.000000        0.01924462        0.00811821        0.01389342        0.00982918        0.00141682        0.00178365        0.00217617        0.00316683        0.00166077
       8         -1.073181        2.000000        0.01997596        0.00774687        0.01348898        0.00956222        0.00140333        0.00178886        0.00218998        0.00318573        0.00167873
       9         -1.072974        2.000000        0.01263552        0.00768142        0.02131248        0.01390732        0.00127464        0.00114720        0.00192937        0.00353262        0.00174986
      10         -1.072974        2.000000        0.01260340        0.00774362        0.02129389        0.01389772        0.00128929        0.00114944        0.00192761        0.00352651        0.00173970
      11         -1.072886        2.000000        0.01235563        0.01659487        0.01621712        0.01020760        0.00231767        0.00166382        0.00149594        0.00246420        0.00164273
      12         -1.072885        2.000000        0.01230776        0.01657444        0.01623278        0.01023771        0.00229954        0.00166172        0.00150024        0.00247254        0.00164912
      13         -1.069500        2.000000        0.01721653        0.01274282        0.00357835        0.01353251        0.00225018        0.00144444        0.00125690        0.00116908        0.00230262
      14         -1.069498        2.000000        0.01757314        0.01263775        0.00351125        0.01333463        0.00226227        0.00144596        0.00125676        0.00117418        0.00231175
      15         -1.068799        2.000000        0.01193446        0.01526681        0.00705421        0.01618849        0.00223878        0.00218456        0.00192653        0.00126050        0.00232786
      16         -1.068798        2.000000        0.01193595        0.01525628        0.00705918        0.01618713        0.00223813        0.00218497        0.00192641        0.00126061        0.00232733
      17         -0.860722        2.000000        0.40907891        0.01551371        0.04656553        0.01045783        0.00095851        0.00436338        0.00442807        0.00282762        0.00065543
      18         -0.860649        2.000000        0.39860277        0.01482252        0.04447789        0.00990546        0.00090915        0.00428870        0.00436666        0.00274109        0.00062659
      19         -0.856397        2.000000        0.37712992        0.02119109        0.06239253        0.01461328        0.00086870        0.00402147        0.00405185        0.00270681        0.00051028
      20         -0.856302        2.000000        0.37465241        0.02028621        0.06028197        0.01374372        0.00085157        0.00399741        0.00402557        0.00268716        0.00049778
      21         -0.855505        2.000000        0.37582135        0.02375912        0.06315237        0.01067721        0.00062100        0.00419122        0.00431771        0.00211532        0.00069195
      22         -0.855488        2.000000        0.37567932        0.02365676        0.06295899        0.01059661        0.00061978        0.00418851        0.00431448        0.00211303        0.00069069
      23         -0.854731        2.000000        0.38275460        0.02598948        0.07745017        0.01773684        0.00078639        0.00337459        0.00320842        0.00187488        0.00043357
      24         -0.854641        2.000000        0.37627031        0.02468379        0.07423214        0.01644187        0.00075832        0.00331114        0.00316014        0.00185620        0.00042835
      25         -0.853566        2.000000        0.39706764        0.02428445        0.06698863        0.01914220        0.00074787        0.00438820        0.00483826        0.00243570        0.00072855
      26         -0.853476        2.000000        0.38982246        0.02276026        0.06413282        0.01730077        0.00073192        0.00430526        0.00475011        0.00239453        0.00070846
      27         -0.852380        2.000000        0.38805357        0.02728069        0.06884892        0.01033359        0.00077998        0.00464500        0.00437946        0.00205405        0.00053758
      28         -0.852377        2.000000        0.38786613        0.02718957        0.06874723        0.01030528        0.00077845        0.00464764        0.00438289        0.00205363        0.00054008
      29         -0.778209        2.000000        0.47070660        0.00773391        0.01992573        0.00507978        0.00045298        0.00081834        0.00094371        0.00094462        0.00046281
      30         -0.778199        2.000000        0.47095965        0.00773099        0.01991637        0.00507066        0.00045599        0.00081915        0.00094244        0.00094818        0.00046466
      31         -0.774397        2.000000        0.47683659        0.00665694        0.01655755        0.00626331        0.00036279        0.00060777        0.00079616        0.00082804        0.00040032
      32         -0.774382        2.000000        0.47655013        0.00665871        0.01655851        0.00627547        0.00036272        0.00060701        0.00079528        0.00082537        0.00040087
      33         -0.773602        2.000000        0.47970657        0.00823495        0.01695314        0.00446123        0.00037236        0.00091793        0.00092388        0.00052101        0.00034019
      34         -0.773598        2.000000        0.47947257        0.00823078        0.01694949        0.00445609        0.00037107        0.00091837        0.00092498        0.00051897        0.00034093
      35         -0.771037        2.000000        0.46537495        0.00812352        0.01978069        0.00904081        0.00029602        0.00047226        0.00059565        0.00065202        0.00031492
      36         -0.771021        2.000000        0.46507231        0.00814297        0.01978739        0.00909280        0.00029569        0.00047094        0.00059331        0.00065066        0.00031448
      37         -0.770364        2.000000        0.46767679        0.01063512        0.02040323        0.00654532        0.00027167        0.00045607        0.00059547        0.00050169        0.00024532
      38         -0.770357        2.000000        0.46740887        0.01066448        0.02041776        0.00652315        0.00027151        0.00045525        0.00059247        0.00049907        0.00024604
      39         -0.769525        2.000000        0.46860724        0.00934902        0.01790079        0.00615761        0.00022696        0.00109962        0.00109723        0.00026740        0.00029047
      40         -0.769518        2.000000        0.46877275        0.00932680        0.01789003        0.00618215        0.00022729        0.00110128        0.00110083        0.00026882        0.00028983
      41         -0.681944        2.000000        0.00751014        0.00024067        0.00149903        0.00681653        0.00007967        0.00003472        0.00032342        0.00063227        0.00062730
      42         -0.681324        2.000000        0.00753177        0.00202125        0.00169731        0.00473123        0.00030154        0.00022394        0.00035008        0.00037226        0.00047787
      43         -0.681228        2.000000        0.00753524        0.00309502        0.00183038        0.00394858        0.00032566        0.00032828        0.00031598        0.00028947        0.00038848
      44         -0.681113        2.000000        0.00729233        0.00474068        0.00227668        0.00165570        0.00038385        0.00048989        0.00038259        0.00018917        0.00019452
      45         -0.679125        2.000000        0.00764288        0.00460049        0.00203687        0.00211114        0.00048164        0.00044495        0.00031802        0.00024980        0.00019896
      46         -0.679124        2.000000        0.00754578        0.00460021        0.00204123        0.00210587        0.00048671        0.00044451        0.00031693        0.00025033        0.00020010
      47         -0.582849        2.000000        0.02789660        0.00590649        0.00582712        0.01974253        0.00069495        0.00067698        0.00124312        0.00204359        0.00162559
      48         -0.581926        2.000000        0.02896094        0.00884075        0.00712893        0.01212884        0.00088689        0.00102823        0.00179854        0.00156803        0.00109982
      49         -0.581633        2.000000        0.02800200        0.00600386        0.00302660        0.01815172        0.00110420        0.00082946        0.00087529        0.00181505        0.00195871
      50         -0.581307        2.000000        0.02805155        0.01240794        0.00646577        0.00647153        0.00138039        0.00176571        0.00173578        0.00102721        0.00098545
      51         -0.579311        2.000000        0.02769394        0.01405010        0.00549329        0.00642779        0.00162683        0.00181732        0.00151951        0.00110333        0.00086157
      52         -0.579303        2.000000        0.02777471        0.01396096        0.00549803        0.00643042        0.00162813        0.00182871        0.00152332        0.00109542        0.00087161
      53         -0.542292        2.000000        0.00151455        0.00004246        0.00024370        0.00076066        0.00000806        0.00001527        0.00000176        0.00004240        0.00008195
      54         -0.541888        2.000000        0.00144820        0.00009741        0.00013295        0.00072487        0.00000748        0.00002535        0.00000850        0.00001707        0.00007370
      55         -0.541788        2.000000        0.00143193        0.00056638        0.00021598        0.00019717        0.00005537        0.00001159        0.00001036        0.00001394        0.00003714
      56         -0.541755        2.000000        0.00143149        0.00042015        0.00025640        0.00015856        0.00005814        0.00001794        0.00001443        0.00001633        0.00002749
      57         -0.539214        2.000000        0.00131241        0.00041871        0.00016112        0.00023751        0.00005901        0.00002379        0.00000411        0.00003080        0.00001825
      58         -0.539208        2.000000        0.00130903        0.00042266        0.00016048        0.00024140        0.00005895        0.00002339        0.00000407        0.00003092        0.00001767
      59         -0.491920        2.000000        0.05873580        0.02994510        0.02668539        0.04366455        0.00158874        0.00182044        0.00247019        0.00286099        0.00193203
      60         -0.488624        2.000000        0.06482338        0.02356735        0.01929621        0.03631638        0.00160079        0.00180293        0.00270242        0.00275059        0.00186914
      61         -0.487887        2.000000        0.06340257        0.04516098        0.02464851        0.02017369        0.00182942        0.00256133        0.00273720        0.00189742        0.00157023
      62         -0.487356        2.000000        0.05507527        0.01612657        0.01225759        0.04009726        0.00167413        0.00197090        0.00233951        0.00406173        0.00258255
      63         -0.487178        2.000000        0.06448663        0.03952864        0.02175461        0.02134946        0.00188330        0.00237637        0.00283879        0.00200526        0.00155544
      64         -0.486383        2.000000        0.05886519        0.02432081        0.01750955        0.02462673        0.00221201        0.00239856        0.00297154        0.00278055        0.00217373
      65         -0.412826        2.000000        0.10014710        0.06306888        0.11024867        0.08069345        0.00126610        0.00166275        0.00222001        0.00241387        0.00116274
      66         -0.406033        2.000000        0.11528042        0.05616876        0.08681383        0.07376353        0.00129813        0.00186242        0.00250358        0.00235495        0.00122827
      67         -0.399791        2.000000        0.10402860        0.01926627        0.06231735        0.09939712        0.00194313        0.00097556        0.00160267        0.00591430        0.00239390
      68         -0.399597        2.000000        0.10513476        0.07464477        0.07813408        0.02973034        0.00209947        0.00349220        0.00404898        0.00143552        0.00163464
      69         -0.398045        2.000000        0.10336563        0.07437333        0.07481462        0.03181800        0.00171148        0.00290095        0.00379837        0.00263391        0.00213610
      70         -0.397928        2.000000        0.09931136        0.07350190        0.06717409        0.03352640        0.00168289        0.00302539        0.00398283        0.00297100        0.00201899
      71         -0.377593        2.000000        0.07461536        0.07037673        0.17360942        0.05101425        0.00045998        0.00129324        0.00136572        0.00111224        0.00039204
      72         -0.373643        2.000000        0.02656875        0.02490359        0.03262522        0.05416347        0.00039807        0.00016914        0.00014511        0.00037030        0.00084201
      73         -0.372008        2.000000        0.02623265        0.03444282        0.01323543        0.03293923        0.00054163        0.00021381        0.00011811        0.00030950        0.00055721
      74         -0.371017        2.000000        0.04661950        0.02090515        0.04626735        0.05675150        0.00039385        0.00052647        0.00054871        0.00065851        0.00084332
      75         -0.370584        2.000000        0.04847844        0.09800196        0.03730348        0.02389121        0.00074235        0.00075260        0.00055907        0.00038518        0.00067594
      76         -0.370142        2.000000        0.02826990        0.03231089        0.02498673        0.01752156        0.00070577        0.00039721        0.00032938        0.00037490        0.00045086
      77         -0.369862        2.000000        0.05566260        0.01445217        0.14090544        0.02389191        0.00010190        0.00099725        0.00122284        0.00105404        0.00009246
      78         -0.369824        2.000000        0.02155155        0.02888451        0.02133464        0.01758569        0.00051051        0.00022998        0.00015370        0.00036579        0.00033459
      79         -0.367494        2.000000        0.05684602        0.03953748        0.09699659        0.01518361        0.00018552        0.00122348        0.00135594        0.00061251        0.00031066
      80         -0.367356        2.000000        0.07434079        0.04883176        0.12623848        0.03047682        0.00028837        0.00135343        0.00142962        0.00108200        0.00027263
      81         -0.363112        2.000000        0.08100505        0.04843238        0.12235491        0.03440065        0.00087376        0.00122929        0.00116892        0.00174400        0.00056581
      82         -0.360765        2.000000        0.06563209        0.03598678        0.08142622        0.04010629        0.00064952        0.00173164        0.00207398        0.00189170        0.00062145
      83         -0.337685        2.000000        0.05153811        0.12413926        0.19722019        0.16501114        0.00070820        0.00062428        0.00059929        0.00144770        0.00064569
      84         -0.328703        2.000000        0.05896139        0.10514672        0.14550353        0.15182636        0.00061910        0.00081650        0.00082052        0.00156115        0.00048321
      85         -0.325286        2.000000        0.03602541        0.11597891        0.21934566        0.12147005        0.00057760        0.00107757        0.00113101        0.00194245        0.00028120
      86         -0.324855        2.000000        0.04377089        0.07415116        0.27485643        0.02076814        0.00089265        0.00326830        0.00337798        0.00307977        0.00070616
      87         -0.323587        2.000000        0.03277069        0.05581535        0.19980857        0.02138824        0.00082674        0.00253903        0.00264287        0.00271381        0.00060569
      88         -0.319374        2.000000        0.05497575        0.08150595        0.17632180        0.12244986        0.00130376        0.00280107        0.00292306        0.00420500        0.00104721
      89         -0.317872        2.000000        0.05093764        0.08083412        0.12118272        0.09762361        0.00145652        0.00108574        0.00091085        0.00208062        0.00135758
      90         -0.317700        2.000000        0.04208800        0.07536560        0.18846231        0.05774006        0.00094853        0.00333548        0.00309545        0.00327974        0.00099069
      91         -0.315852        2.000000        0.05307235        0.08956732        0.23574492        0.09526556        0.00078391        0.00220550        0.00272637        0.00267412        0.00045825
      92         -0.315094        2.000000        0.05147581        0.10085711        0.12236818        0.05702488        0.00115209        0.00141848        0.00147415        0.00135116        0.00136156
      93         -0.314586        2.000000        0.05022215        0.10718140        0.10535589        0.06036441        0.00129603        0.00120089        0.00110136        0.00130974        0.00119494
      94         -0.314355        2.000000        0.04284286        0.08168867        0.21245300        0.03016778        0.00142755        0.00429425        0.00317932        0.00182673        0.00051553
      95         -0.313631        2.000000        0.04854414        0.07403350        0.23832708        0.02143512        0.00106006        0.00425235        0.00325392        0.00162341        0.00048365
      96         -0.313390        2.000000        0.06151647        0.09563092        0.28665705        0.02296586        0.00098792        0.00363702        0.00381627        0.00192320        0.00087947
      97         -0.312016        2.000000        0.05183892        0.12830731        0.28760190        0.04603129        0.00062862        0.00200608        0.00254835        0.00160650        0.00055207
      98         -0.311765        2.000000        0.06090510        0.05890414        0.32116146        0.02374444        0.00079558        0.00346618        0.00406111        0.00151291        0.00042847
      99         -0.311537        2.000000        0.05124896        0.10005417        0.16527230        0.01888404        0.00069261        0.00312793        0.00203239        0.00078521        0.00115341
     100         -0.310579        2.000000        0.05005967        0.17224033        0.27475631        0.06604957        0.00047450        0.00074952        0.00174170        0.00086043        0.00042591
     101         -0.306283        2.000000        0.06978817        0.10672689        0.29151876        0.08945086        0.00081429        0.00420150        0.00340639        0.00124818        0.00020756
     102         -0.303459        2.000000        0.05668930        0.14940218        0.30208225        0.06916301        0.00024391        0.00170594        0.00209575        0.00027411        0.00057544
     103         -0.300071        2.000000        0.09662857        0.09006712        0.31265050        0.03721251        0.00091537        0.00639749        0.00599159        0.00190973        0.00069931
     104         -0.296049        2.000000        0.09182195        0.11107124        0.35149138        0.03422234        0.00055139        0.00510881        0.00539352        0.00090621        0.00092200
     105         -0.289595        2.000000        0.06321888        0.14310604        0.29476411        0.14715983        0.00156810        0.00110192        0.00129172        0.00220765        0.00125338
     106         -0.282768        2.000000        0.01464648        0.05014980        0.14307984        0.02627193        0.00006930        0.00065248        0.00086048        0.00018497        0.00022490
     107         -0.282516        2.000000        0.05493823        0.11953521        0.29413169        0.09714658        0.00104445        0.00206134        0.00262551        0.00121751        0.00170361
     108         -0.278877        2.000000        0.02016068        0.06965407        0.16285198        0.05582088        0.00048536        0.00153795        0.00190292        0.00085915        0.00073903
     109         -0.278703        2.000000        0.00534231        0.19257252        0.05737549        0.11679763        0.00176155        0.00421628        0.00348489        0.00245457        0.00227237
     110         -0.278573        2.000000        0.02264691        0.10642045        0.21744991        0.08099717        0.00163761        0.00196403        0.00376472        0.00281308        0.00141953
     111         -0.276127        2.000000        0.03342092        0.14691578        0.21169762        0.12258611        0.00137338        0.00396817        0.00507815        0.00328584        0.00144893
     112         -0.274162        2.000000        0.02794340        0.07412560        0.21259070        0.06820364        0.00055417        0.00071220        0.00086248        0.00126739        0.00059639
     113         -0.273004        2.000000        0.00122620        0.22605311        0.07834452        0.16760385        0.00220470        0.00452011        0.00492707        0.00366689        0.00292996
     114         -0.272765        2.000000        0.00624422        0.19021540        0.05044890        0.12355229        0.00324663        0.00450118        0.00527281        0.00434705        0.00326332
     115         -0.272471        2.000000        0.00623672        0.14242387        0.09616118        0.11984799        0.00200441        0.00254998        0.00392515        0.00299569        0.00233617
     116         -0.271676        2.000000        0.00401454        0.15481309        0.03287859        0.15802800        0.00348361        0.00320873        0.00380304        0.00491501        0.00343843
     117         -0.268085        2.000000        0.00661276        0.10588127        0.03496435        0.24663312        0.00327576        0.00300464        0.00381815        0.00668942        0.00343643
     118         -0.266931        2.000000        0.00385781        0.08768092        0.02636220        0.24566396        0.00329959        0.00235645        0.00304836        0.00570206        0.00371008
     119         -0.266480        2.000000        0.00614503        0.22360278        0.06972212        0.17173003        0.00340756        0.00497174        0.00631998        0.00557063        0.00378522
     120         -0.265690        2.000000        0.01346670        0.17612207        0.07175269        0.19503027        0.00250458        0.00221047        0.00346165        0.00336913        0.00228060
     121         -0.265060        2.000000        0.03835903        0.11871252        0.17848190        0.11295652        0.00139541        0.00214365        0.00294705        0.00171129        0.00107634
     122         -0.262403        2.000000        0.00160909        0.20599001        0.05349904        0.18556929        0.00425079        0.00373040        0.00438370        0.00445960        0.00436457
     123         -0.255798        2.000000        0.00680280        0.10437078        0.03411904        0.25950326        0.00287544        0.00283894        0.00317008        0.00533899        0.00302267
     124         -0.252146        2.000000        0.00416646        0.15426557        0.04176332        0.25088246        0.00399785        0.00399641        0.00469159        0.00645915        0.00414761
     125         -0.218832        2.000000        0.00001926        0.07320821        0.02199966        0.05469224        0.00019545        0.00052121        0.00057026        0.00032184        0.00024687
     126         -0.215221        2.000000        0.00144021        0.09004065        0.02559211        0.04816775        0.00028079        0.00091841        0.00109056        0.00066951        0.00047334
     127         -0.214454        2.000000        0.00148834        0.06382770        0.02474985        0.08325141        0.00044734        0.00058252        0.00075930        0.00116324        0.00047307
     128         -0.213649        2.000000        0.00104099        0.03755178        0.02728149        0.10759422        0.00046699        0.00049738        0.00066431        0.00126860        0.00031209
     129         -0.213246        2.000000        0.00029014        0.06155386        0.02766264        0.10980442        0.00060003        0.00062012        0.00076919        0.00108769        0.00054583
     130         -0.212385        2.000000        0.00026597        0.10000270        0.02813635        0.07287448        0.00069258        0.00097221        0.00142942        0.00128960        0.00097207
     131         -0.180286        2.000000        0.01783981        0.16806818        0.11793748        0.18760601        0.00120208        0.00052222        0.00036226        0.00056168        0.00122176
     132         -0.172520        2.000000        0.01831028        0.21126710        0.11967297        0.16478266        0.00120009        0.00061731        0.00046425        0.00052689        0.00138416
     133         -0.168439        2.000000        0.00964185        0.14347486        0.10749533        0.20526352        0.00070447        0.00040555        0.00030195        0.00067644        0.00050040
     134         -0.161912        2.000000        0.00802799        0.17517933        0.06762868        0.19584904        0.00088527        0.00024286        0.00021871        0.00035128        0.00074500
     135         -0.161678        2.000000        0.00128226        0.26207188        0.13380079        0.34259626        0.00074777        0.00160388        0.00144879        0.00116267        0.00103413
     136         -0.161610        2.000000        0.00794712        0.16999047        0.06387564        0.19600606        0.00075898        0.00037783        0.00036103        0.00021901        0.00079277
     137         -0.160834        2.000000        0.00104773        0.30033309        0.11771186        0.28112615        0.00096844        0.00137133        0.00195276        0.00081938        0.00065085
     138         -0.160613        2.000000        0.00167987        0.22971354        0.12435773        0.37568639        0.00046982        0.00167969        0.00138147        0.00105167        0.00093701
     139         -0.159885        2.000000        0.00084627        0.34005558        0.12556229        0.30237573        0.00091644        0.00156861        0.00193904        0.00095755        0.00077039
     140         -0.154980        2.000000        0.01080938        0.18222315        0.08671739        0.27735073        0.00130249        0.00035765        0.00058286        0.00058479        0.00063762
     141         -0.154404        2.000000        0.00133427        0.11494587        0.08119252        0.14325660        0.00016907        0.00057303        0.00062186        0.00037761        0.00038256
     142         -0.150524        2.000000        0.01522713        0.22481305        0.11681270        0.29726948        0.00060352        0.00078992        0.00071252        0.00043876        0.00059239
     143         -0.145786        2.000000        0.01280226        0.22953479        0.06588124        0.38062037        0.00054403        0.00066822        0.00058202        0.00071321        0.00145104
     144         -0.140075        2.000000        0.00490530        0.26306781        0.09418496        0.40494958        0.00008860        0.00043783        0.00049702        0.00012163        0.00012849