
 *** WARNING in input/input_parsing.F:273 :: The specified keyword ***
 *** 'POTENTIAL_TYPE' is deprecated and may be removed in a future ***
 *** version: Use 'POTENTIAL <TYPE> ...' instead..                 ***

 DBCSR| CPU Multiplication driver                                           XSMM (U)
 DBCSR| Multrec recursion limit                                              512 (U)
 DBCSR| Multiplication stack size                                           1000 (D)
 DBCSR| Maximum elements for images                                    UNLIMITED (U)
 DBCSR| Multiplicative factor virtual images                                   1 (U)
 DBCSR| Use multiplication densification                                       T (D)
 DBCSR| Multiplication size stacks                                             3 (U)
 DBCSR| Use memory pool for CPU allocation                                     F (U)
 DBCSR| Number of 3D layers                                               SINGLE (U)
 DBCSR| Use MPI memory allocation                                              F (U)
 DBCSR| Use RMA algorithm                                                      F (U)
 DBCSR| Use Communication thread                                               T (U)
 DBCSR| Communication thread load                                             83 (D)
 DBCSR| MPI: My process id                                                     0
 DBCSR| MPI: Number of processes                                              48
 DBCSR| OMP: Current number of threads                                         2
 DBCSR| OMP: Max number of threads                                             2
 DBCSR| Split modifier for TAS multiplication algorithm                  1.0E+00 (U)


  **** **** ******  **  PROGRAM STARTED AT               2025-02-10 10:54:09.550
 ***** ** ***  *** **   PROGRAM STARTED ON                                 c0269
 **    ****   ******    PROGRAM STARTED BY                                u12591
 ***** **    ** ** **   PROGRAM PROCESS ID                                424292
  **** **  *******  **  PROGRAM STARTED IN /mnt/lustre-grete/usr/u12591/cp2k_par
                                           ser_tests/cp2k-2025.1/bands_low

 CP2K| version string:                                       CP2K version 2025.1
 CP2K| source code revision number:                                  git:9635df4
 CP2K| cp2kflags: omp libint fftw3 libxc libgrpp parallel scalapack mpi_f08 xsmm
 CP2K|             spglib libdftd4 libvori libbqb hdf5
 CP2K| is freely available from                            https://www.cp2k.org/
 CP2K| Program compiled at                          Tue Jan  7 11:11:50 CET 2025
 CP2K| Program compiled on                                              glogin11
 CP2K| Program compiled for                                                local
 CP2K| Data directory path    /mnt/lustre-grete/usr/u12591/software/cp2k/cp2k-20
 CP2K| Input file name                                                 aiida.inp

 GLOBAL| Force Environment number                                              1
 GLOBAL| Basis set file name                                        BASIS_MOLOPT
 GLOBAL| Potential file name                                      GTH_POTENTIALS
 GLOBAL| MM Potential file name                                     MM_POTENTIAL
 GLOBAL| Coordinate file name                                      __STD_INPUT__
 GLOBAL| Method name                                                        CP2K
 GLOBAL| Project name                                                      aiida
 GLOBAL| Run type                                                         ENERGY
 GLOBAL| FFT library                                                       FFTW3
 GLOBAL| Diagonalization library                                       ScaLAPACK
 GLOBAL| DGEMM library                                                      BLAS
 GLOBAL| Orthonormality check for eigenvectors                          DISABLED
 GLOBAL| Matrix multiplication library                                 ScaLAPACK
 GLOBAL| All-to-all communication in single precision                          F
 GLOBAL| FFTs using library dependent lengths                                  F
 GLOBAL| Grid backend                                                       AUTO
 GLOBAL| Global print level                                                  LOW
 GLOBAL| MPI I/O enabled                                                       T
 GLOBAL| Total number of message passing processes                            48
 GLOBAL| Number of threads for this process                                    2
 GLOBAL| This output is from process                                           0
 GLOBAL| OpenMP stack size per thread (OMP_STACKSIZE)                    default
 GLOBAL| CPU model name                           Intel(R) Xeon(R) Platinum 8468
 GLOBAL| CPUID                                                              1003

 MEMORY| system memory details [Kb]
 MEMORY|                        rank 0           min           max       average
 MEMORY| MemTotal            527928696     527928696     527928696     527928696
 MEMORY| MemFree             513178268     513178268     513178268     513178268
 MEMORY| Buffers                 11400         11400         11400         11400
 MEMORY| Cached                4699960       4699960       4699960       4699960
 MEMORY| Slab                  2362204       2362204       2362204       2362204
 MEMORY| SReclaimable           350024        350024        350024        350024
 MEMORY| MemLikelyFree       518239652     518239652     518239652     518239652


 GENERATE|  Preliminary Number of Bonds generated:                             0
 GENERATE|  Achieved consistency in connectivity generation.

 *******************************************************************************
 *******************************************************************************
 **                                                                           **
 **     #####                         ##              ##                      **
 **    ##   ##            ##          ##              ##                      **
 **   ##     ##                       ##            ######                    **
 **   ##     ##  ##   ##  ##   #####  ##  ##   ####   ##    #####    #####    **
 **   ##     ##  ##   ##  ##  ##      ## ##   ##      ##   ##   ##  ##   ##   **
 **   ##  ## ##  ##   ##  ##  ##      ####     ###    ##   ######   ######    **
 **    ##  ###   ##   ##  ##  ##      ## ##      ##   ##   ##       ##        **
 **     #######   #####   ##   #####  ##  ##  ####    ##    #####   ##        **
 **           ##                                                    ##        **
 **                                                                           **
 **                                                ... make the atoms dance   **
 **                                                                           **
 **            Copyright (C) by CP2K developers group (2000-2025)             **
 **                      J. Chem. Phys. 152, 194103 (2020)                    **
 **                                                                           **
 *******************************************************************************


 TOTAL NUMBERS AND MAXIMUM NUMBERS

  Total number of            - Atomic kinds:                                   1
                             - Atoms:                                          2
                             - Shell sets:                                     2
                             - Shells:                                        10
                             - Primitive Cartesian functions:                 12
                             - Cartesian basis functions:                     28
                             - Spherical basis functions:                     26

  Maximum angular momentum of- Orbital basis functions:                        2
                             - Local part of the GTH pseudopotential:          0
                             - Non-local part of the GTH pseudopotential:      2


 SCF PARAMETERS         Density guess:                                   RESTART
                        --------------------------------------------------------
                        max_scf:                                             150
                        max_scf_history:                                       0
                        max_diis:                                              4
                        --------------------------------------------------------
                        eps_scf:                                        1.00E-04
                        eps_scf_history:                                0.00E+00
                        eps_diis:                                       1.00E-01
                        eps_eigval:                                     1.00E-05
                        --------------------------------------------------------
                        level_shift [a.u.]:                             0.000000
                        --------------------------------------------------------
                        Mixing method:                            BROYDEN_MIXING
                                                charge density mixing in g-space
                        --------------------------------------------------------
                        No outer SCF

 Number of electrons:                                                          8
 Number of occupied orbitals:                                                  4
 Number of molecular orbitals:                                                 4

 Number of orbital functions:                                                 26
 Number of independent orbital functions:                                     26

 Extrapolation method: initial_guess

 *** WARNING in qs_initial_guess.F:303 :: User requested to restart the    ***
 *** wavefunction from the file named: aiida-RESTART.kp. This file does    ***
 *** not exist. Please check the existence of the file or change properly  ***
 *** the value of the keyword WFN_RESTART_FILE_NAME. Calculation continues ***
 *** using ATOMIC GUESS.                                                   ***



 SCF WAVEFUNCTION OPTIMIZATION

  Step     Update method      Time    Convergence         Total energy    Change
  ------------------------------------------------------------------------------
     1 NoMix/Diag. 0.30E+00    0.3     1.01852675        -8.0063347895 -8.01E+00
     2 Broy./Diag. 0.30E+00    0.5     0.06943317        -7.7540449723  2.52E-01
     3 Broy./Diag. 0.30E+00    0.5     0.06382121        -7.8272323899 -7.32E-02
     4 Broy./Diag. 0.30E+00    0.5     0.00714854        -7.8743246606 -4.71E-02
     5 Broy./Diag. 0.30E+00    0.5     0.00421445        -7.8595760264  1.47E-02
     6 Broy./Diag. 0.30E+00    0.5     0.00037168        -7.8609156772 -1.34E-03
     7 Broy./Diag. 0.30E+00    0.5     0.00004269        -7.8600115224  9.04E-04

  *** SCF run converged in     7 steps ***


  Electronic density on regular grids:         -7.9999999991        0.0000000009
  Core density on regular grids:                7.9999986144       -0.0000013856
  Total charge density on r-space grids:       -0.0000013847
  Total charge density g-space grids:          -0.0000013847

  Overlap energy of the core charge distribution:               0.00000000002475
  Self energy of the core charge distribution:                -20.44863593345038
  Core Hamiltonian energy:                                      4.42942938403359
  Hartree energy:                                              10.60277441515810
  Exchange-correlation energy:                                 -2.44357938816780

  Total energy:                                                -7.86001152240174

 KPOINTS| Band Structure Calculation
 KPOINTS| Number of k-point sets                                               5
 KPOINTS| Number of added MOs/bands                                           10
 KPOINTS| Number of k-points in set    1                                       6
 KPOINTS| In units of b-vector [2pi/Bohr]
 KPOINTS| Special point     1           W     0.250000     0.750000     0.250000
 KPOINTS| Special point     2           L     0.500000     0.500000     0.500000
#  Point 1      Spin 1:     0.25000000     0.75000000     0.25000000       0.16666667
#   Band    Energy [eV]     Occupation
       1    -4.27812631     2.00000000
       2    -1.25951664     2.00000000
       3     1.67072559     2.00000000
       4     3.04168587     2.00000000
       5     7.34848412     0.00000000
       6    10.93025696     0.00000000
       7    12.00613562     0.00000000
       8    12.31249711     0.00000000
       9    17.81061393     0.00000000
      10    18.84395072     0.00000000
      11    20.76713233     0.00000000
      12    21.75136263     0.00000000
      13    26.12587895     0.00000000
      14    27.52943976     0.00000000
#  Point 2      Spin 1:     0.30000000     0.70000000     0.30000000       0.16666667
#   Band    Energy [eV]     Occupation
       1    -3.61689395     2.00000000
       2    -1.80728766     2.00000000
       3     0.90409461     2.00000000
       4     3.03378993     2.00000000
       5     7.26651208     0.00000000
       6    11.74674625     0.00000000
       7    12.85210146     0.00000000
       8    13.03719277     0.00000000
       9    15.41822465     0.00000000
      10    16.54838137     0.00000000
      11    22.78242093     0.00000000
      12    24.30443791     0.00000000
      13    26.18990652     0.00000000
      14    27.26126778     0.00000000
#  Point 3      Spin 1:     0.35000000     0.65000000     0.35000000       0.16666667
#   Band    Energy [eV]     Occupation
       1    -3.82587960     2.00000000
       2    -1.56871904     2.00000000
       3     0.79824404     2.00000000
       4     3.22482541     2.00000000
       5     7.47799967     0.00000000
       6    12.46049940     0.00000000
       7    12.73140259     0.00000000
       8    13.24522155     0.00000000
       9    14.29320451     0.00000000
      10    15.68123601     0.00000000
      11    23.50794831     0.00000000
      12    25.45611293     0.00000000
      13    25.98495141     0.00000000
      14    26.77391113     0.00000000
#  Point 4      Spin 1:     0.40000000     0.60000000     0.40000000       0.16666667
#   Band    Energy [eV]     Occupation
       1    -4.26809048     2.00000000
       2    -1.62644886     2.00000000
       3     1.79215482     2.00000000
       4     3.56572511     2.00000000
       5     7.93763906     0.00000000
       6    10.79830614     0.00000000
       7    11.00781643     0.00000000
       8    14.76565818     0.00000000
       9    15.52960303     0.00000000
      10    16.58886016     0.00000000
      11    22.63963867     0.00000000
      12    23.81437512     0.00000000
      13    24.08496504     0.00000000
      14    27.16617084     0.00000000
#  Point 5      Spin 1:     0.45000000     0.55000000     0.45000000       0.16666667
#   Band    Energy [eV]     Occupation
       1    -4.57412475     2.00000000
       2    -1.84540197     2.00000000
       3     3.24423501     2.00000000
       4     3.93689877     2.00000000
       5     8.12699664     0.00000000
       6     9.37404628     0.00000000
       7     9.79749343     0.00000000
       8    16.75380566     0.00000000
       9    16.96486186     0.00000000
      10    17.99105471     0.00000000
      11    20.90302998     0.00000000
      12    22.12742416     0.00000000
      13    22.24366733     0.00000000
      14    28.36700055     0.00000000
#  Point 6      Spin 1:     0.50000000     0.50000000     0.50000000       0.16666667
#   Band    Energy [eV]     Occupation
       1    -4.67970757     2.00000000
       2    -1.93743988     2.00000000
       3     4.11267293     2.00000000
       4     4.11267293     2.00000000
       5     7.52003349     0.00000000
       6     9.33125690     0.00000000
       7     9.33125690     0.00000000
       8    17.91798890     0.00000000
       9    18.88115377     0.00000000
      10    18.97021246     0.00000000
      11    18.97021246     0.00000000
      12    21.06689646     0.00000000
      13    21.06689646     0.00000000
      14    29.19462700     0.00000000
 KPOINTS| Time for k-point line                                            0.016
 KPOINTS| Number of k-points in set    2                                       6
 KPOINTS| In units of b-vector [2pi/Bohr]
 KPOINTS| Special point     1           L     0.500000     0.500000     0.500000
 KPOINTS| Special point     2       GAMMA     0.000000     0.000000     0.000000
#  Point 1      Spin 1:     0.50000000     0.50000000     0.50000000       0.16666667
#   Band    Energy [eV]     Occupation
       1    -4.67970757     2.00000000
       2    -1.93743988     2.00000000
       3     4.11267293     2.00000000
       4     4.11267293     2.00000000
       5     7.52003349     0.00000000
       6     9.33125690     0.00000000
       7     9.33125690     0.00000000
       8    17.91798890     0.00000000
       9    18.88115377     0.00000000
      10    18.97021246     0.00000000
      11    18.97021246     0.00000000
      12    21.06689646     0.00000000
      13    21.06689646     0.00000000
      14    29.19462700     0.00000000
#  Point 2      Spin 1:     0.40000000     0.40000000     0.40000000       0.16666667
#   Band    Energy [eV]     Occupation
       1    -5.17003155     2.00000000
       2    -1.18442050     2.00000000
       3     4.18942926     2.00000000
       4     4.18942926     2.00000000
       5     7.60133599     0.00000000
       6     9.40759504     0.00000000
       7     9.40759504     0.00000000
       8    16.42533796     0.00000000
       9    17.58500390     0.00000000
      10    17.58500390     0.00000000
      11    20.04969249     0.00000000
      12    22.68450154     0.00000000
      13    22.68450154     0.00000000
      14    26.65623981     0.00000000
#  Point 3      Spin 1:     0.30000000     0.30000000     0.30000000       0.16666667
#   Band    Energy [eV]     Occupation
       1    -5.97078956     2.00000000
       2     0.39236568     2.00000000
       3     4.41705407     2.00000000
       4     4.41705407     2.00000000
       5     7.83380138     0.00000000
       6     9.48196352     0.00000000
       7     9.48196352     0.00000000
       8    14.47809563     0.00000000
       9    16.12214839     0.00000000
      10    16.12214839     0.00000000
      11    20.93732711     0.00000000
      12    24.62443493     0.00000000
      13    24.62443493     0.00000000
      14    24.81214249     0.00000000
#  Point 4      Spin 1:     0.20000000     0.20000000     0.20000000       0.16666667
#   Band    Energy [eV]     Occupation
       1    -6.62587748     2.00000000
       2     2.28852060     2.00000000
       3     4.77584137     2.00000000
       4     4.77584137     2.00000000
       5     8.17137782     0.00000000
       6     9.20982968     0.00000000
       7     9.20982968     0.00000000
       8    12.51478726     0.00000000
       9    15.55983439     0.00000000
      10    15.55983439     0.00000000
      11    21.59906623     0.00000000
      12    24.22462410     0.00000000
      13    25.22031794     0.00000000
      14    25.22031794     0.00000000
#  Point 5      Spin 1:     0.10000000     0.10000000     0.10000000       0.16666667
#   Band    Energy [eV]     Occupation
       1    -7.03479520     2.00000000
       2     4.23990740     2.00000000
       3     5.18180129     2.00000000
       4     5.18180129     2.00000000
       5     8.43895051     0.00000000
       6     8.63210357     0.00000000
       7     8.63210357     0.00000000
       8    10.68421953     0.00000000
       9    15.72788899     0.00000000
      10    15.72788899     0.00000000
      11    24.17086641     0.00000000
      12    24.65210433     0.00000000
      13    24.65210433     0.00000000
      14    25.28488569     0.00000000
#  Point 6      Spin 1:     0.00000000     0.00000000     0.00000000       0.16666667
#   Band    Energy [eV]     Occupation
       1    -7.17191407     2.00000000
       2     5.38861613     2.00000000
       3     5.39139949     2.00000000
       4     5.39139949     2.00000000
       5     8.30829296     0.00000000
       6     8.31420508     0.00000000
       7     8.31420508     0.00000000
       8     9.85736640     0.00000000
       9    15.91488552     0.00000000
      10    15.91488552     0.00000000
      11    24.26354621     0.00000000
      12    24.26384362     0.00000000
      13    24.26384362     0.00000000
      14    34.14125970     0.00000000
 KPOINTS| Time for k-point line                                            0.013
 KPOINTS| Number of k-points in set    3                                       7
 KPOINTS| In units of b-vector [2pi/Bohr]
 KPOINTS| Special point     1 not specifi     0.000000     0.000000     0.000000
 KPOINTS| Special point     2 not specifi     0.000000     0.500000     0.500000
#  Point 1      Spin 1:     0.00000000     0.00000000     0.00000000       0.14285714
#   Band    Energy [eV]     Occupation
       1    -7.17191407     2.00000000
       2     5.38861613     2.00000000
       3     5.39139949     2.00000000
       4     5.39139949     2.00000000
       5     8.30829296     0.00000000
       6     8.31420508     0.00000000
       7     8.31420508     0.00000000
       8     9.85736640     0.00000000
       9    15.91488552     0.00000000
      10    15.91488552     0.00000000
      11    24.26354621     0.00000000
      12    24.26384362     0.00000000
      13    24.26384362     0.00000000
      14    34.14125970     0.00000000
#  Point 2      Spin 1:     0.00000000     0.08333333     0.08333333       0.14285714
#   Band    Energy [eV]     Occupation
       1    -7.04469365     2.00000000
       2     4.73473018     2.00000000
       3     4.93723691     2.00000000
       4     4.93928329     2.00000000
       5     8.03517001     0.00000000
       6     8.93583084     0.00000000
       7     8.93964344     0.00000000
       8    10.46321435     0.00000000
       9    15.36323749     0.00000000
      10    16.12181957     0.00000000
      11    24.28660249     0.00000000
      12    24.28677687     0.00000000
      13    24.90189684     0.00000000
      14    25.56937401     0.00000000
#  Point 3      Spin 1:     0.00000000     0.16666667     0.16666667       0.14285714
#   Band    Energy [eV]     Occupation
       1    -6.66120832     2.00000000
       2     3.37022758     2.00000000
       3     4.12398861     2.00000000
       4     4.12620891     2.00000000
       5     7.43466595     0.00000000
       6    10.26127604     0.00000000
       7    10.26513697     0.00000000
       8    11.07251299     0.00000000
       9    14.65839372     0.00000000
      10    16.74307409     0.00000000
      11    21.73990582     0.00000000
      12    24.21573816     0.00000000
      13    24.21581107     0.00000000
      14    26.37586844     0.00000000
#  Point 4      Spin 1:     0.00000000     0.25000000     0.25000000       0.14285714
#   Band    Energy [eV]     Occupation
       1    -6.02600651     2.00000000
       2     1.81815528     2.00000000
       3     3.37766445     2.00000000
       4     3.37996570     2.00000000
       5     6.84630361     0.00000000
       6     9.90193535     0.00000000
       7    11.84650675     0.00000000
       8    11.85061479     0.00000000
       9    15.67818470     0.00000000
      10    17.77831232     0.00000000
      11    21.32989570     0.00000000
      12    23.59852701     0.00000000
      13    23.59870877     0.00000000
      14    28.08133702     0.00000000
#  Point 5      Spin 1:     0.00000000     0.33333333     0.33333333       0.14285714
#   Band    Energy [eV]     Occupation
       1    -5.15086989     2.00000000
       2     0.23113502     2.00000000
       3     2.81249276     2.00000000
       4     2.81483741     2.00000000
       5     6.44469345     0.00000000
       6     8.28707805     0.00000000
       7    13.57955862     0.00000000
       8    13.58407577     0.00000000
       9    17.55585825     0.00000000
      10    19.22105797     0.00000000
      11    21.74808518     0.00000000
      12    22.09868788     0.00000000
      13    22.09916126     0.00000000
      14    28.08589933     0.00000000
#  Point 6      Spin 1:     0.00000000     0.41666667     0.41666667       0.14285714
#   Band    Energy [eV]     Occupation
       1    -4.05413203     2.00000000
       2    -1.31706332     2.00000000
       3     2.46465058     2.00000000
       4     2.46701829     2.00000000
       5     6.31585345     0.00000000
       6     7.14920984     0.00000000
       7    15.42026402     0.00000000
       8    15.42569443     0.00000000
       9    19.47058937     0.00000000
      10    20.09428001     0.00000000
      11    20.09525365     0.00000000
      12    21.04911118     0.00000000
      13    21.83942584     0.00000000
      14    25.60819510     0.00000000
#  Point 7      Spin 1:     0.00000000     0.50000000     0.50000000       0.14285714
#   Band    Energy [eV]     Occupation
       1    -2.76363125     2.00000000
       2    -2.76258803     2.00000000
       3     2.34752645     2.00000000
       4     2.34990151     2.00000000
       5     6.52424672     0.00000000
       6     6.52500188     0.00000000
       7    16.80077869     0.00000000
       8    16.80973137     0.00000000
       9    18.60245877     0.00000000
      10    18.60667129     0.00000000
      11    21.03461654     0.00000000
      12    21.03691352     0.00000000
      13    23.21017576     0.00000000
      14    23.21113827     0.00000000
 KPOINTS| Time for k-point line                                            0.020
 KPOINTS| Number of k-points in set    4                                       4
 KPOINTS| In units of b-vector [2pi/Bohr]
 KPOINTS| Special point     1 not specifi     0.000000     0.500000     0.500000
 KPOINTS| Special point     2 not specifi     0.250000     0.750000     0.500000
#  Point 1      Spin 1:     0.00000000     0.50000000     0.50000000       0.25000000
#   Band    Energy [eV]     Occupation
       1    -2.76363125     2.00000000
       2    -2.76258803     2.00000000
       3     2.34752645     2.00000000
       4     2.34990151     2.00000000
       5     6.52424672     0.00000000
       6     6.52500188     0.00000000
       7    16.80077869     0.00000000
       8    16.80973137     0.00000000
       9    18.60245877     0.00000000
      10    18.60667129     0.00000000
      11    21.03461654     0.00000000
      12    21.03691352     0.00000000
      13    23.21017576     0.00000000
      14    23.21113827     0.00000000
#  Point 2      Spin 1:     0.08333333     0.58333333     0.50000000       0.25000000
#   Band    Energy [eV]     Occupation
       1    -2.72148633     2.00000000
       2    -2.72038770     2.00000000
       3     2.03325731     2.00000000
       4     2.03563277     2.00000000
       5     7.17562044     0.00000000
       6     7.17696361     0.00000000
       7    15.77643617     0.00000000
       8    15.78355849     0.00000000
       9    17.92492797     0.00000000
      10    17.93050033     0.00000000
      11    21.84685306     0.00000000
      12    21.84952083     0.00000000
      13    24.01966224     0.00000000
      14    24.02037396     0.00000000
#  Point 3      Spin 1:     0.16666667     0.66666667     0.50000000       0.25000000
#   Band    Energy [eV]     Occupation
       1    -2.63027275     2.00000000
       2    -2.62904059     2.00000000
       3     1.52283780     2.00000000
       4     1.52527149     2.00000000
       5     8.72785306     0.00000000
       6     8.72999936     0.00000000
       7    13.36509098     0.00000000
       8    13.36939878     0.00000000
       9    17.72331434     0.00000000
      10    17.72944359     0.00000000
      11    22.35022497     0.00000000
      12    22.35212781     0.00000000
      13    25.98235065     0.00000000
      14    25.98359059     0.00000000
#  Point 4      Spin 1:     0.25000000     0.75000000     0.50000000       0.25000000
#   Band    Energy [eV]     Occupation
       1    -2.58064528     2.00000000
       2    -2.57933200     2.00000000
       3     1.30152675     2.00000000
       4     1.30401443     2.00000000
       5    10.37685704     0.00000000
       6    10.38002577     0.00000000
       7    11.37717332     0.00000000
       8    11.37813832     0.00000000
       9    17.69795232     0.00000000
      10    17.70407750     0.00000000
      11    22.50493306     0.00000000
      12    22.50695066     0.00000000
      13    27.41366088     0.00000000
      14    27.41418682     0.00000000
 KPOINTS| Time for k-point line                                            0.010
 KPOINTS| Number of k-points in set    5                                       3
 KPOINTS| In units of b-vector [2pi/Bohr]
 KPOINTS| Special point     1 not specifi     0.250000     0.750000     0.500000
 KPOINTS| Special point     2 not specifi     0.375000     0.750000     0.375000
#  Point 1      Spin 1:     0.25000000     0.75000000     0.50000000       0.33333333
#   Band    Energy [eV]     Occupation
       1    -2.58064528     2.00000000
       2    -2.57933200     2.00000000
       3     1.30152675     2.00000000
       4     1.30401443     2.00000000
       5    10.37685704     0.00000000
       6    10.38002577     0.00000000
       7    11.37717332     0.00000000
       8    11.37813832     0.00000000
       9    17.69795232     0.00000000
      10    17.70407750     0.00000000
      11    22.50493306     0.00000000
      12    22.50695066     0.00000000
      13    27.41366088     0.00000000
      14    27.41418682     0.00000000
#  Point 2      Spin 1:     0.31250000     0.75000000     0.43750000       0.33333333
#   Band    Energy [eV]     Occupation
       1    -3.03768107     2.00000000
       2    -2.21169701     2.00000000
       3     0.94823164     2.00000000
       4     2.11392576     2.00000000
       5     8.20725954     0.00000000
       6    10.46445172     0.00000000
       7    12.57706903     0.00000000
       8    13.08957283     0.00000000
       9    16.20244123     0.00000000
      10    17.95787497     0.00000000
      11    21.98284720     0.00000000
      12    23.91014678     0.00000000
      13    26.03692699     0.00000000
      14    26.99351078     0.00000000
#  Point 3      Spin 1:     0.37500000     0.75000000     0.37500000       0.33333333
#   Band    Energy [eV]     Occupation
       1    -3.19094076     2.00000000
       2    -2.14180889     2.00000000
       3     0.82621493     2.00000000
       4     2.80620906     2.00000000
       5     6.98967621     0.00000000
       6    10.42647054     0.00000000
       7    13.96761981     0.00000000
       8    14.78451312     0.00000000
       9    14.90284115     0.00000000
      10    16.56544610     0.00000000
      11    22.68703817     0.00000000
      12    25.00614192     0.00000000
      13    25.48093868     0.00000000
      14    25.50638512     0.00000000
 KPOINTS| Time for k-point line                                            0.008

 ENERGY| Total FORCE_EVAL ( QS ) energy [hartree]             -7.860011522401742

 -------------------------------------------------------------------------------
 -                                                                             -
 -                                DBCSR STATISTICS                             -
 -                                                                             -
 -------------------------------------------------------------------------------
 COUNTER                                    TOTAL       BLAS       SMM       ACC
 flops inhomo. stacks                           0       0.0%      0.0%      0.0%
 flops total                         0.000000E+00       0.0%      0.0%      0.0%
 flops max/rank                      0.000000E+00       0.0%      0.0%      0.0%
 matmuls inhomo. stacks                         0       0.0%      0.0%      0.0%
 matmuls total                                  0       0.0%      0.0%      0.0%
 number of processed stacks                     0       0.0%      0.0%      0.0%
 average stack size                                     0.0       0.0       0.0
 marketing flops                     0.000000E+00
 -------------------------------------------------------------------------------
 -                                                                             -
 -                      DBCSR MESSAGE PASSING PERFORMANCE                      -
 -                                                                             -
 -------------------------------------------------------------------------------
 ROUTINE             CALLS      AVE VOLUME [Bytes]
 MP_Bcast                1                     12.
 MP_Allreduce         2288                      8.
 MP_Alltoall         11748                   7925.
 -------------------------------------------------------------------------------

 -------------------------------------------------------------------------------
 -                                                                             -
 -                                DBM STATISTICS                               -
 -                                                                             -
 -------------------------------------------------------------------------------
    M  x    N  x    K                                          COUNT     PERCENT
 -------------------------------------------------------------------------------

 -------------------------------------------------------------------------------
 -                                                                             -
 -                                GRID STATISTICS                              -
 -                                                                             -
 -------------------------------------------------------------------------------
 LP    KERNEL             BACKEND                              COUNT     PERCENT
 4     collocate general  CPU                                  23840      26.67%
 6     collocate general  CPU                                  23840      26.67%
 4     integrate general  CPU                                  20860      23.33%
 6     integrate general  CPU                                  20860      23.33%
 0     collocate general  CPU                                      2       0.00%
 -------------------------------------------------------------------------------

 MEMORY| Estimated peak process memory [MiB]                                 186

 -------------------------------------------------------------------------------
 -                                                                             -
 -                         MESSAGE PASSING PERFORMANCE                         -
 -                                                                             -
 -------------------------------------------------------------------------------

 ROUTINE             CALLS      AVE VOLUME [Bytes]
 MP_Group                9
 MP_Bcast             4169                  17443.
 MP_Allreduce         1787                     28.
 MP_Sync               123
 MP_Alltoall           280
 MP_SendRecv          2303                   1076.
 MP_ISendRecv         1974                   1051.
 MP_Wait              5200
 MP_comm_split          12
 MP_ISend             4140                    723.
 MP_IRecv             5092                    453.
 -------------------------------------------------------------------------------


 -------------------------------------------------------------------------------
 -                                                                             -
 -                           R E F E R E N C E S                               -
 -                                                                             -
 -------------------------------------------------------------------------------
 
 CP2K version 2025.1, the CP2K developers group (2025).
 CP2K is freely available from https://www.cp2k.org/ .
 
 T. D. Kuehne, M. Iannuzzi, M. Del Ben, V. V. Rybkin, P. Seewald, F. Stein, T. 
 Laino, R. Z. Khaliullin, O. Schuett, F. Schiffmann, D. Golze, J. Wilhelm, S. 
 Chulkov, M. H. Bani-Hashemian, V. Weber, U. Borstnik, M. Taillefumier, A. S. 
 Jakobovits, A. Lazzaro, H. Pabst, T. Mueller, R. Schade, M. Guidon, S. 
 Andermatt, N. Holmberg, G. K. Schenter, A. Hehn, A. Bussy, F. Belleflamme, G. 
 Tabacchi, A. Gloess, M. Lass, I. Bethune, C. J. Mundy, C. Plessl, M. Watkins, 
 J. VandeVondele, M. Krack, J. Hutter.
 J. Chem. Phys. 152, 194103 (2020).
 CP2K: An electronic structure and molecular dynamics software package - 
 Quickstep: Efficient and accurate electronic structure calculations.
 https://doi.org/10.1063/5.0007045

 S. Lehtola, C. Steigemann, M. J. T. Oliveira, M. A. L. Marques.
 SoftwareX 7, 1-5 (2018).
 Recent developments in libxc - A comprehensive library of functionals for 
 density functional theory.
 https://doi.org/10.1016/j.softx.2017.11.002

 A. Togo, I. Tanaka.
 arXiv, 1808.01590 (2018).
 Spglib : a software library for crystal symmetry search.

 O. Schuett, P. Messmer, J. Hutter, J. VandeVondele.
 Electronic Structure Calculations on Graphics Processing Units, 173-190 (2016).
 GPU-Accelerated Sparse Matrix-Matrix Multiplication for Linear Scaling Density 
 Functional Theory.
 https://doi.org/10.1002/9781118670712.ch8

 A. Heinecke, G. Henry, M. Hutchinson, H. Pabst.
 Proceedings of Intl. Supercomputing Conference, 981-991 (2016).
 LIBXSMM: Accelerating Small Matrix Multiplications by Runtime Code Generation.
 https://doi.org/10.1109/SC.2016.83

 J. Hutter, M. Iannuzzi, F. Schiffmann, J. VandeVondele.
 WIREs Comput Mol Sci. 4, 15-25 (2014).
 CP2K: atomistic simulations of condensed matter systems.
 https://doi.org/10.1002/wcms.1159

 U. Borstnik, J. VandeVondele, V. Weber, J. Hutter.
 Parallel Comput. 40, 47-58 (2014).
 Sparse matrix multiplication: The distributed block-compressed sparse row 
 library.
 https://doi.org/10.1016/j.parco.2014.03.012

 M. A. L. Marques, M. J. T. Oliveira, T. Burnus.
 Comput. Phys. Commun. 183, 2272-2281 (2012).
 LIBXC: A library of exchange and correlation functionals for density functional 
 theory.
 https://doi.org/10.1016/j.cpc.2012.05.007

 J. VandeVondele, J. Hutter.
 J. Chem. Phys. 127, 114105 (2007).
 Gaussian basis sets for accurate calculations on molecular systems in gas and 
 condensed phases.
 https://doi.org/10.1063/1.2770708

 J. VandeVondele, M. Krack, F. Mohamed, M. Parrinello, T. Chassaing, J. Hutter.
 Comput. Phys. Commun. 167, 103-128 (2005).
 QUICKSTEP: Fast and accurate density functional calculations using a mixed 
 Gaussian and plane waves approach.
 https://doi.org/10.1016/j.cpc.2004.12.014

 M. Krack.
 Theor. Chem. Acc. 114, 145-152 (2005).
 Pseudopotentials for H to Kr optimized for gradient-corrected 
 exchange-correlation functionals.
 https://doi.org/10.1007/s00214-005-0655-y

 M. Frigo, S. G. Johnson.
 Proc. IEEE 93, 216-231 (2005).
 The design and implementation of FFTW3.
 https://doi.org/10.1109/JPROC.2004.840301

 C. Hartwigsen, S. Goedecker, J. Hutter.
 Phys. Rev. B 58, 3641-3662 (1998).
 Relativistic separable dual-space Gaussian pseudopotentials from H to Rn.
 https://doi.org/10.1103/PhysRevB.58.3641

 G. Lippert, J. Hutter, M. Parrinello.
 Mol. Phys. 92, 477-487 (1997).
 A hybrid Gaussian and plane wave density functional scheme.
 https://doi.org/10.1080/002689797170220

 S. Goedecker, M. Teter, J. Hutter.
 Phys. Rev. B 54, 1703-1710 (1996).
 Separable dual-space Gaussian pseudopotentials.
 https://doi.org/10.1103/PhysRevB.54.1703


 -------------------------------------------------------------------------------
 -                                                                             -
 -                                T I M I N G                                  -
 -                                                                             -
 -------------------------------------------------------------------------------
 SUBROUTINE                       CALLS  ASD         SELF TIME        TOTAL TIME
                                MAXIMUM       AVERAGE  MAXIMUM  AVERAGE  MAXIMUM
 CP2K                                 1  1.0    0.127    0.130    4.287    4.287
 qs_energies                          1  2.0    0.017    0.019    4.028    4.028
 scf_env_do_scf                       1  3.0    0.001    0.002    3.615    3.616
 scf_env_do_scf_inner_loop            7  4.0    0.008    0.009    3.612    3.613
 qs_ks_update_qs_env                  7  5.0    0.000    0.000    0.661    1.755
 rebuild_ks_matrix                    7  6.0    0.000    0.001    0.636    1.730
 qs_ks_build_kohn_sham_matrix         7  7.0    0.005    0.006    0.636    1.729
 sum_up_and_integrate                 7  8.0    0.000    0.000    0.608    1.702
 integrate_v_rspace                  14  9.0    0.000    0.003    0.608    1.702
 grid_integrate_task_list            14 10.0    0.053    1.680    0.053    1.680
 transfer_rs2pw                      49  8.0    0.000    0.000    1.571    1.623
 qs_rho_update_rho_low                8  5.0    0.000    0.000    1.622    1.623
 calculate_rho_elec                  16  6.0    0.000    0.001    1.622    1.623
 density_rs2pw                       16  7.0    0.001    0.002    1.570    1.621
 mp_sendrecv_dv                    2303 10.0    1.566    1.618    1.566    1.618
 transfer_rs2pw_50                   17  8.9    0.002    0.003    1.565    1.617
 grid_collocate_task_list            16  7.0    0.051    1.595    0.051    1.595
 do_general_diag_kp                  12  4.8    0.003    0.004    1.471    1.507
 qs_scf_new_mos_kp                    7  5.0    0.001    0.001    1.411    1.447
 mp_alltoall_i22                   2008  8.2    1.218    1.259    1.218    1.259
 dbcsr_desymmetrize_deep           1154  6.9    0.010    0.014    1.213    1.253
 fft_wrap_pw1pw2                    169  9.8    0.000    0.000    0.569    0.591
 fft_wrap_pw1pw2_50                 109 11.0    0.001    0.002    0.553    0.575
 fft3d_pb                           109 12.0    0.002    0.003    0.551    0.573
 potential_pw2rs                     14 10.0    0.000    0.001    0.554    0.573
 mp_alltoall_z22v                   278 13.9    0.546    0.568    0.546    0.568
 cube_transpose_2                    84 12.5    0.001    0.001    0.080    0.558
 cube_transpose_4                    52 13.4    0.001    0.001    0.463    0.556
 init_scf_run                         1  3.0    0.000    0.000    0.261    0.261
 scf_env_initial_rho_setup            1  4.0    0.002    0.003    0.261    0.261
 copy_dbcsr_to_fm                   658  6.3    0.004    0.004    0.188    0.197
 dbcsr_complete_redistribute        854  7.7    0.015    0.021    0.163    0.172
 -------------------------------------------------------------------------------

 The number of warnings for this run is : 2
 
 -------------------------------------------------------------------------------
  **** **** ******  **  PROGRAM ENDED AT                 2025-02-10 10:54:15.567
 ***** ** ***  *** **   PROGRAM RAN ON                                     c0269
 **    ****   ******    PROGRAM RAN BY                                    u12591
 ***** **    ** ** **   PROGRAM PROCESS ID                                424292
  **** **  *******  **  PROGRAM STOPPED IN /mnt/lustre-grete/usr/u12591/cp2k_par
                                           ser_tests/cp2k-2025.1/bands_low
