64   
1    

1    
  0.0100000000000000   0.0000000000000000   0.0000000000000000
  -0.0032734000    0.0000000097    0.0000000097
   0.0000034100    0.0000000097    0.0000000097
   0.0000096100    0.0000000097    0.0000000097
   0.0000006800    0.0000000097    0.0000000097
   0.0000096100    0.0000000097    0.0000000097
   0.0000006800    0.0000000097    0.0000000097
  -0.0000821700    0.0000000097    0.0000000097
   0.0000050000    0.0000000097    0.0000000097
  -0.0000912900    0.0000227597    0.0000227597
  -0.0000014000    0.0000020397    0.0000020397
  -0.0000911300    0.0000224197   -0.0000224503
  -0.0000013400    0.0000020497   -0.0000020703
  -0.0000911300   -0.0000224503    0.0000224197
  -0.0000013400   -0.0000020703    0.0000020497
  -0.0000912900   -0.0000227903   -0.0000227903
  -0.0000014000   -0.0000020703   -0.0000020703
   0.0000448500   -0.0000224603    0.0000449797
   0.0000451700   -0.0000227203   -0.0000452603
   0.0000076700   -0.0000020403   -0.0000125703
   0.0000076800   -0.0000020403    0.0000125197
   0.0000448500    0.0000224897   -0.0000450103
   0.0000451700    0.0000227597    0.0000452397
   0.0000076700    0.0000020697    0.0000125497
   0.0000076800    0.0000020797   -0.0000125403
   0.0000448500    0.0000449797   -0.0000224603
   0.0000451700   -0.0000452603   -0.0000227203
   0.0000448500   -0.0000450103    0.0000224897
   0.0000451700    0.0000452397    0.0000227597
   0.0000076700   -0.0000125703   -0.0000020403
   0.0000076800    0.0000125197   -0.0000020403
   0.0000076700    0.0000125497    0.0000020697
   0.0000076800   -0.0000125403    0.0000020797
  -0.0000035100    0.0000050697    0.0000050697
   0.0000424100    0.0000062297    0.0000062297
   0.0000058100    0.0000061597    0.0000063797
  -0.0000106800    0.0000074797    0.0000067797
   0.0000058100    0.0000063797    0.0000061597
  -0.0000106800    0.0000067797    0.0000074797
   0.0000002900    0.0000067597    0.0000067597
   0.0007923000    0.0006539697    0.0006539697
   0.0000002800   -0.0000067603   -0.0000067603
   0.0007922900   -0.0006539603   -0.0006539603
   0.0000058000   -0.0000063803   -0.0000061503
  -0.0000106900   -0.0000067803   -0.0000074703
   0.0000058000   -0.0000061503   -0.0000063803
  -0.0000106900   -0.0000074703   -0.0000067803
  -0.0000035200   -0.0000050703   -0.0000050703
   0.0000424000   -0.0000062203   -0.0000062203
  -0.0000105500   -0.0000067003    0.0000075697
   0.0000059400   -0.0000064903    0.0000062797
   0.0007860300   -0.0006385803    0.0006385797
   0.0000003900   -0.0000067203    0.0000067097
   0.0000422900   -0.0000062103    0.0000062097
  -0.0000034900   -0.0000050703    0.0000050597
  -0.0000105500   -0.0000075703    0.0000066897
   0.0000059400   -0.0000062803    0.0000064797
  -0.0000105500    0.0000075697   -0.0000067003
   0.0000059400    0.0000062797   -0.0000064903
   0.0000422900    0.0000062097   -0.0000062103
  -0.0000034900    0.0000050597   -0.0000050703
   0.0007860300    0.0006385797   -0.0006385803
   0.0000003900    0.0000067097   -0.0000067203
  -0.0000105500    0.0000066897   -0.0000075703
   0.0000059400    0.0000064797   -0.0000062803
