# Projected DOS for atomic kind Si1 at iteration step i = 0, E(Fermi) =     0.246606 a.u.
#     MO Eigenvalue [a.u.]      Occupation                 s                py                pz                px               d-2               d-1                d0               d+1               d+2
       1         -0.206833        2.000000        0.50000000        0.00000000        0.00000000        0.00000000        0.00000000        0.00000000        0.00000000        0.00000000        0.00000000
       2          0.246606        2.000000        0.00000000        0.12835005        0.12835006        0.12835004        0.03831662        0.03831662        0.00000000        0.03831662        0.00000000
       3          0.246606        2.000000        0.00000000        0.06326739        0.25669579        0.06508696        0.07663195        0.01943055        0.00000000        0.01888735        0.00000000
       4          0.246606        2.000000        0.00000000        0.19343271        0.00000430        0.19161314        0.00000128        0.05720269        0.00000000        0.05774589        0.00000000
       5          0.328876        0.000000        0.00000000        0.10840512        0.10840512        0.10840512        0.05826154        0.05826154        0.00000000        0.05826154        0.00000000
       6          0.328876        0.000000        0.00000000        0.01852857        0.20583532        0.10085141        0.11062476        0.05420189        0.00000000        0.00995805        0.00000000
       7          0.328876        0.000000        0.00000000        0.19828163        0.01097487        0.11595879        0.00589837        0.06232125        0.00000000        0.10656509        0.00000000
       8          0.390403        0.000000        0.50000000        0.00000000        0.00000000        0.00000000        0.00000000        0.00000000        0.00000000        0.00000000        0.00000000
       9          0.590245        0.000000        0.00000000        0.00000000        0.00000000        0.00000000        0.00000000        0.00000000        0.50000000        0.00000000        0.00000000
      10          0.590245        0.000000        0.00000000        0.00000000        0.00000000        0.00000000        0.00000000        0.00000000        0.00000000        0.00000000        0.50000000
      11          0.881537        0.000000        0.00000000        0.06943174        0.00000000        0.06943958        0.00000000        0.18057453        0.00000000        0.18055415        0.00000000
      12          0.881537        0.000000        0.00000000        0.02314914        0.09258087        0.02314130        0.24075245        0.06017793        0.00000000        0.06019831        0.00000000
      13          0.881537        0.000000        0.00000000        0.04629046        0.04629046        0.04629046        0.12037621        0.12037621        0.00000000        0.12037621        0.00000000
      14          1.218763        0.000000        0.00000000        0.00000000        0.00000000        0.00000000        0.00000000        0.00000000        0.50000000        0.00000000        0.00000000
      15          1.218763        0.000000        0.00000000        0.00000000        0.00000000        0.00000000        0.00000000        0.00000000        0.00000000        0.00000000        0.50000000
      16          1.258847        0.000000        0.00000000        0.11486935        0.11486935        0.11486934        0.05179732        0.05179732        0.00000000        0.05179732        0.00000000
      17          1.258847        0.000000        0.00000000        0.17950956        0.00031511        0.16478271        0.00014209        0.07430490        0.00000000        0.08094563        0.00000000
      18          1.258847        0.000000        0.00000000        0.05022869        0.22942314        0.06495555        0.10345299        0.02929018        0.00000000        0.02264945        0.00000000
      19          1.460817        0.000000        0.50000000        0.00000000        0.00000000        0.00000000        0.00000000        0.00000000        0.00000000        0.00000000        0.00000000
      20          1.648424        0.000000        0.00000000        0.11005886        0.11005886        0.11005886        0.05660780        0.05660780        0.00000000        0.05660780        0.00000000
      21          1.648425        0.000000        0.00000000        0.21095107        0.02152947        0.09769679        0.01107342        0.05024915        0.00000000        0.10850010        0.00000000
      22          1.648425        0.000000        0.00000000        0.00916715        0.19858875        0.12242143        0.10214170        0.06296597        0.00000000        0.00471501        0.00000000
      23          1.717220        0.000000        0.00000000        0.15869283        0.15869284        0.15869282        0.00797384        0.00797384        0.00000000        0.00797384        0.00000000
      24          1.717222        0.000000        0.00000000        0.16107810        0.29491673        0.02008371        0.01481864        0.00100914        0.00000000        0.00809367        0.00000000
      25          1.717222        0.000000        0.00000000        0.15630759        0.02246896        0.29730199        0.00112899        0.01493850        0.00000000        0.00785397        0.00000000
      26          3.617272        0.000000        0.50000000        0.00000000        0.00000000        0.00000000        0.00000000        0.00000000        0.00000000        0.00000000        0.00000000
