 DBCSR| CPU Multiplication driver                                           XSMM
 DBCSR| Multrec recursion limit                                              512
 DBCSR| Multiplication stack size                                           1000
 DBCSR| Maximum elements for images                                    UNLIMITED
 DBCSR| Multiplicative factor virtual images                                   1
 DBCSR| Use multiplication densification                                       T
 DBCSR| Multiplication size stacks                                             3
 DBCSR| Use memory pool for CPU allocation                                     F
 DBCSR| Number of 3D layers                                               SINGLE
 DBCSR| Use MPI memory allocation                                              F
 DBCSR| Use RMA algorithm                                                      F
 DBCSR| Use Communication thread                                               T
 DBCSR| Communication thread load                                             83
 DBCSR| MPI: My node id                                                        0
 DBCSR| MPI: Number of nodes                                                  12
 DBCSR| OMP: Current number of threads                                         2
 DBCSR| OMP: Max number of threads                                             2
 DBCSR| Split modifier for TAS multiplication algorithm                  1.0E+00


  **** **** ******  **  PROGRAM STARTED AT               2021-06-03 15:28:48.835
 ***** ** ***  *** **   PROGRAM STARTED ON                               mpcl032
 **    ****   ******    PROGRAM STARTED BY                              pubo1141
 ***** **    ** ** **   PROGRAM PROCESS ID                                 11094
  **** **  *******  **  PROGRAM STARTED IN /user/pubo1141/simulations/aiida_test
                                           s/cp2k_8.2/cell_opt_walltime_low

 CP2K| version string:                                          CP2K version 8.2
 CP2K| source code revision number:                                  git:310b7ab
 CP2K| cp2kflags: omp libint fftw3 libxc parallel mpi3 scalapack xsmm spglib mkl
 CP2K|             libvori libbqb
 CP2K| is freely available from                            https://www.cp2k.org/
 CP2K| Program compiled at                         Mon May 31 14:14:56 CEST 2021
 CP2K| Program compiled on                                               hpcl003
 CP2K| Program compiled for                                        carl-mkl-ompi
 CP2K| Data directory path    /cm/shared/uniol/software/8.3/CP2K/8.2-gomkl-2019b
 CP2K| Input file name                                                 aiida.inp

 GLOBAL| Force Environment number                                              1
 GLOBAL| Basis set file name                                        BASIS_MOLOPT
 GLOBAL| Potential file name                                      GTH_POTENTIALS
 GLOBAL| MM Potential file name                                     MM_POTENTIAL
 GLOBAL| Coordinate file name                                      __STD_INPUT__
 GLOBAL| Method name                                                        CP2K
 GLOBAL| Project name                                                      aiida
 GLOBAL| Run type                                                       CELL_OPT
 GLOBAL| FFT library                                                       FFTW3
 GLOBAL| Diagonalization library                                       ScaLAPACK
 GLOBAL| Orthonormality check for eigenvectors                          DISABLED
 GLOBAL| Matrix multiplication library                                    SCALAP
 GLOBAL| All-to-all communication in single precision                          F
 GLOBAL| FFTs using library dependent lengths                                  F
 GLOBAL| Grid backend                                                       AUTO
 GLOBAL| Global print level                                                  LOW
 GLOBAL| MPI I/O enabled                                                       T
 GLOBAL| Total number of message passing processes                            12
 GLOBAL| Number of threads for this process                                    2
 GLOBAL| This output is from process                                           0
 GLOBAL| CPU model name                Intel(R) Xeon(R) CPU E5-2650 v4 @ 2.20GHz
 GLOBAL| CPUID                                                              1002
 GLOBAL| Compiled for CPUID                                                    0

 *** HINT in environment.F:872 :: The compiler target flags (generic) used ***
 *** to build this binary cannot exploit all extensions of this CPU model  ***
 *** (x86_avx2). Consider compiler target flags as part of FCFLAGS and     ***
 *** CFLAGS (ARCH file).                                                   ***


 MEMORY| system memory details [Kb]
 MEMORY|                        rank 0           min           max       average
 MEMORY| MemTotal            131594208     131594208     131594208     131594208
 MEMORY| MemFree              75458688      75458688      75458944      75458816
 MEMORY| Buffers                261708        261708        261708        261708
 MEMORY| Cached               43944172      43944172      43944172      43944172
 MEMORY| Slab                  3101616       3101616       3101616       3101616
 MEMORY| SReclaimable          1607484       1607484       1607484       1607484
 MEMORY| MemLikelyFree       121272052     121272052     121272308     121272180


 GENERATE|  Preliminary Number of Bonds generated:                             0
 GENERATE|  Achieved consistency in connectivity generation.

 *******************************************************************************
 *******************************************************************************
 **                                                                           **
 **     #####                         ##              ##                      **
 **    ##   ##            ##          ##              ##                      **
 **   ##     ##                       ##            ######                    **
 **   ##     ##  ##   ##  ##   #####  ##  ##   ####   ##    #####    #####    **
 **   ##     ##  ##   ##  ##  ##      ## ##   ##      ##   ##   ##  ##   ##   **
 **   ##  ## ##  ##   ##  ##  ##      ####     ###    ##   ######   ######    **
 **    ##  ###   ##   ##  ##  ##      ## ##      ##   ##   ##       ##        **
 **     #######   #####   ##   #####  ##  ##  ####    ##    #####   ##        **
 **           ##                                                    ##        **
 **                                                                           **
 **                                                ... make the atoms dance   **
 **                                                                           **
 **            Copyright (C) by CP2K developers group (2000-2021)             **
 **                      J. Chem. Phys. 152, 194103 (2020)                    **
 **                                                                           **
 *******************************************************************************


 TOTAL NUMBERS AND MAXIMUM NUMBERS

  Total number of            - Atomic kinds:                                   2
                             - Atoms:                                          4
                             - Shell sets:                                     4
                             - Shells:                                        23
                             - Primitive Cartesian functions:                 23
                             - Cartesian basis functions:                     59
                             - Spherical basis functions:                     55

  Maximum angular momentum of- Orbital basis functions:                        2
                             - Local part of the GTH pseudopotential:          2
                             - Non-local part of the GTH pseudopotential:      4


 SCF PARAMETERS         Density guess:                                   RESTART
                        --------------------------------------------------------
                        max_scf:                                             150
                        max_scf_history:                                       0
                        max_diis:                                              4
                        --------------------------------------------------------
                        eps_scf:                                        1.00E-06
                        eps_scf_history:                                0.00E+00
                        eps_diis:                                       1.00E-01
                        eps_eigval:                                     1.00E-05
                        --------------------------------------------------------
                        level_shift [a.u.]:                                 0.00
                        --------------------------------------------------------
                        Mixing method:                            BROYDEN_MIXING
                                                charge density mixing in g-space
                        --------------------------------------------------------
                        No outer SCF

 KPOINTS| Number of kpoint groups                                              4
 KPOINTS| Size of each kpoint group                                            3
 KPOINTS| Number of kpoints per group                                          1

 CELL_OPT| Pressure tolerance [bar]:                                       100.0
 CELL_OPT| Keep angles between the cell vectors:                              NO
 CELL_OPT| Keep cell symmetry:                                                NO
 CELL_OPT| Constraint:                                                      NONE

 BFGS| Use rational function optimization for step estimation:                NO
 BFGS| Use model Hessian for initial guess:                                   NO
 BFGS| Restart Hessian:                                                       NO
 BFGS| Trust radius:                                                       0.472

 *******************************************************************************
 ***                     STARTING   CELL   OPTIMIZATION                      ***
 ***                                   BFGS                                  ***
 *******************************************************************************

 CELL| Volume [angstrom^3]:                                           204.400073
 CELL| Vector a [angstrom]:       6.612     0.000     0.000   |a| =     6.611987
 CELL| Vector b [angstrom]:       3.306     5.726     0.000   |b| =     6.611987
 CELL| Vector c [angstrom]:       3.306     1.909     5.399   |c| =     6.611987
 CELL| Angle (b,c), alpha [degree]:                                    60.000000
 CELL| Angle (a,c), beta  [degree]:                                    60.000000
 CELL| Angle (a,b), gamma [degree]:                                    60.000000
 CELL| Numerically orthorhombic:                                              NO

 Number of electrons:                                                         32
 Number of occupied orbitals:                                                 16
 Number of molecular orbitals:                                                16

 Number of orbital functions:                                                 55
 Number of independent orbital functions:                                     55

 Extrapolation method: initial_guess

 *** WARNING in qs_initial_guess.F:309 :: User requested to restart the    ***
 *** wavefunction from the file named: aiida-RESTART.kp. This file does    ***
 *** not exist. Please check the existence of the file or change properly  ***
 *** the value of the keyword WFN_RESTART_FILE_NAME. Calculation continues ***
 *** using ATOMIC GUESS.                                                   ***



 SCF WAVEFUNCTION OPTIMIZATION

  Step     Update method      Time    Convergence         Total energy    Change
  ------------------------------------------------------------------------------
     1 NoMix/Diag. 0.30E+00    0.2     2.07271002       -66.3624596855 -6.64E+01
     2 Broy./Diag. 0.30E+00    0.3     0.24655881       -66.1662102273  1.96E-01
     3 Broy./Diag. 0.30E+00    0.3     0.38462129       -66.1093930334  5.68E-02
     4 Broy./Diag. 0.30E+00    0.3     0.13797233       -66.0392814100  7.01E-02
     5 Broy./Diag. 0.30E+00    0.3     0.08662847       -65.9762974230  6.30E-02
     6 Broy./Diag. 0.30E+00    0.3     0.00788386       -65.9789656425 -2.67E-03
     7 Broy./Diag. 0.30E+00    0.3     0.00623453       -65.9856510766 -6.69E-03
     8 Broy./Diag. 0.30E+00    0.3     0.00038925       -65.9868825729 -1.23E-03
     9 Broy./Diag. 0.30E+00    0.3     0.00016159       -65.9866099705  2.73E-04
    10 Broy./Diag. 0.30E+00    0.3     0.00006075       -65.9864118309  1.98E-04
    11 Broy./Diag. 0.30E+00    0.3     0.00001202       -65.9863642436  4.76E-05
    12 Broy./Diag. 0.30E+00    0.3     0.00000362       -65.9863641594  8.41E-08
    13 Broy./Diag. 0.30E+00    0.3     0.00000045       -65.9863675033 -3.34E-06

  *** SCF run converged in    13 steps ***


  Electronic density on regular grids:        -31.9999999983        0.0000000017
  Core density on regular grids:               31.9999994903       -0.0000005097
  Total charge density on r-space grids:       -0.0000005079
  Total charge density g-space grids:          -0.0000005079

  Overlap energy of the core charge distribution:               0.00000000000000
  Self energy of the core charge distribution:               -138.89582544120611
  Core Hamiltonian energy:                                     27.23118137810038
  Hartree energy:                                              56.69787184008379
  Exchange-correlation energy:                                -11.01959528031904

  Total energy:                                               -65.98636750334099

 ENERGY| Total FORCE_EVAL ( QS ) energy [a.u.]:              -65.986367696079782

 --------  Informations at step =     0 ------------
  Optimization Method        =                 BFGS
  Total Energy               =       -65.9863676961
  Internal Pressure [bar]    =      1595.5005336262
  Used time                  =                4.966
 ---------------------------------------------------

 --------------------------
 OPTIMIZATION STEP:      1
 --------------------------

 CELL| Volume [angstrom^3]:                                           204.460010
 CELL| Vector a [angstrom]:       6.612     0.000     0.000   |a| =     6.611774
 CELL| Vector b [angstrom]:       3.306     5.727     0.000   |b| =     6.612579
 CELL| Vector c [angstrom]:       3.306     1.908     5.400   |c| =     6.612579
 CELL| Angle (b,c), alpha [degree]:                                    60.010011
 CELL| Angle (a,c), beta  [degree]:                                    60.004692
 CELL| Angle (a,b), gamma [degree]:                                    60.004683
 CELL| Numerically orthorhombic:                                              NO

 Number of electrons:                                                         32
 Number of occupied orbitals:                                                 16
 Number of molecular orbitals:                                                16

 Number of orbital functions:                                                 55
 Number of independent orbital functions:                                     55

 Extrapolation method: initial_guess


 SCF WAVEFUNCTION OPTIMIZATION

  Step     Update method      Time    Convergence         Total energy    Change
  ------------------------------------------------------------------------------
     1 Broy./Diag. 0.30E+00    0.2     0.00373255       -65.9861448510 -6.60E+01
     2 Broy./Diag. 0.30E+00    0.3     0.00037849       -65.9868554466 -7.11E-04
     3 Broy./Diag. 0.30E+00    0.3     0.00035531       -65.9865534772  3.02E-04
     4 Broy./Diag. 0.30E+00    0.3     0.00007442       -65.9864054327  1.48E-04
     5 Broy./Diag. 0.30E+00    0.3     0.00001146       -65.9864057494 -3.17E-07
     6 Broy./Diag. 0.30E+00    0.3     0.00000809       -65.9864302587 -2.45E-05
     7 Broy./Diag. 0.30E+00    0.3     0.00000342       -65.9864434086 -1.31E-05
     8 Broy./Diag. 0.30E+00    0.3     0.00000025       -65.9864452804 -1.87E-06

  *** SCF run converged in     8 steps ***


  Electronic density on regular grids:        -32.0000002412       -0.0000002412
  Core density on regular grids:               31.9999994918       -0.0000005082
  Total charge density on r-space grids:       -0.0000007494
  Total charge density g-space grids:          -0.0000007494

  Overlap energy of the core charge distribution:               0.00000000000000
  Self energy of the core charge distribution:               -138.89582544120611
  Core Hamiltonian energy:                                     27.23054838364105
  Hartree energy:                                              56.69817754449440
  Exchange-correlation energy:                                -11.01934576732503

  Total energy:                                               -65.98644528039569

 ENERGY| Total FORCE_EVAL ( QS ) energy [a.u.]:              -65.986442278813740

 --------  Informations at step =     1 ------------
  Optimization Method        =                 BFGS
  Total Energy               =       -65.9864422788
  Internal Pressure [bar]    =      1545.0630285438
  Real energy change         =        -0.0000745827
  Predicted change in energy =        -0.0000378312
  Scaling factor             =         0.0000000000
  Step size                  =         0.0053300161
  Trust radius               =         0.4724315332
  Decrease in energy         =                  YES
  Used time                  =                3.438

  Convergence check :
  Max. step size             =         0.0053300161
  Conv. limit for step size  =         0.0030000000
  Convergence in step size   =                   NO
  RMS step size              =         0.0020502347
  Conv. limit for RMS step   =         0.0015000000
  Convergence in RMS step    =                   NO
  Max. gradient              =         0.0052214148
  Conv. limit for gradients  =         0.0000190000
  Conv. for gradients        =                   NO
  RMS gradient               =         0.0020122672
  Conv. limit for RMS grad.  =         0.0003000000
  Conv. for gradients        =                   NO
  Pressure Deviation [bar]   =      1577.9163138656
  Pressure Tolerance [bar]   =       100.0000000000
  Conv. for  PRESSURE        =                   NO
 ---------------------------------------------------

 --------------------------
 OPTIMIZATION STEP:      2
 --------------------------

 CELL| Volume [angstrom^3]:                                           207.627051
 CELL| Vector a [angstrom]:       6.600     0.000     0.000   |a| =     6.600440
 CELL| Vector b [angstrom]:       3.296     5.768     0.000   |b| =     6.643708
 CELL| Vector c [angstrom]:       3.296     1.880     5.453   |c| =     6.643859
 CELL| Angle (b,c), alpha [degree]:                                    60.537132
 CELL| Angle (a,c), beta  [degree]:                                    60.253544
 CELL| Angle (a,b), gamma [degree]:                                    60.252267
 CELL| Numerically orthorhombic:                                              NO

 Number of electrons:                                                         32
 Number of occupied orbitals:                                                 16
 Number of molecular orbitals:                                                16

 Number of orbital functions:                                                 55
 Number of independent orbital functions:                                     55

 Extrapolation method: initial_guess


 SCF WAVEFUNCTION OPTIMIZATION

  Step     Update method      Time    Convergence         Total energy    Change
  ------------------------------------------------------------------------------
     1 Broy./Diag. 0.30E+00    0.2     0.59954442       -65.9778488655 -6.60E+01
     2 Broy./Diag. 0.30E+00    0.3     0.01821073       -66.0132971215 -3.54E-02
     3 Broy./Diag. 0.30E+00    0.3     0.01695657       -65.9949177517  1.84E-02
     4 Broy./Diag. 0.30E+00    0.3     0.00351264       -65.9861761834  8.74E-03
     5 Broy./Diag. 0.30E+00    0.3     0.00050948       -65.9863620970 -1.86E-04
     6 Broy./Diag. 0.30E+00    0.3     0.00044754       -65.9878157629 -1.45E-03
     7 Broy./Diag. 0.30E+00    0.3     0.00016666       -65.9885275792 -7.12E-04
     8 Broy./Diag. 0.30E+00    0.3     0.00001774       -65.9886107798 -8.32E-05
     9 Broy./Diag. 0.30E+00    0.3     0.00003467       -65.9884642276  1.47E-04
    10 Broy./Diag. 0.30E+00    0.3     0.00000116       -65.9884207005  4.35E-05
    11 Broy./Diag. 0.30E+00    0.3     0.00000064       -65.9884200970  6.04E-07

  *** SCF run converged in    11 steps ***


  Electronic density on regular grids:        -32.0000002887       -0.0000002887
  Core density on regular grids:               31.9999994942       -0.0000005058
  Total charge density on r-space grids:       -0.0000007945
  Total charge density g-space grids:          -0.0000007945

  Overlap energy of the core charge distribution:               0.00000000000000
  Self energy of the core charge distribution:               -138.89582544120611
  Core Hamiltonian energy:                                     27.20413013848401
  Hartree energy:                                              56.71136218741697
  Exchange-correlation energy:                                -11.00808698172413

  Total energy:                                               -65.98842009702925

 ENERGY| Total FORCE_EVAL ( QS ) energy [a.u.]:              -65.988422678822374

 --------  Informations at step =     2 ------------
  Optimization Method        =                 BFGS
  Total Energy               =       -65.9884226788
  Internal Pressure [bar]    =      -540.3774226798
  Real energy change         =        -0.0019804000
  Predicted change in energy =        -0.0019692757
  Scaling factor             =         0.0000000000
  Step size                  =         0.2821512922
  Trust radius               =         0.4724315332
  Decrease in energy         =                  YES
  Used time                  =                4.514

  Convergence check :
  Max. step size             =         0.2821512922
  Conv. limit for step size  =         0.0030000000
  Convergence in step size   =                   NO
  RMS step size              =         0.1087372544
  Conv. limit for RMS step   =         0.0015000000
  Convergence in RMS step    =                   NO
  Max. gradient              =         0.0011212847
  Conv. limit for gradients  =         0.0000190000
  Conv. for gradients        =                   NO
  RMS gradient               =         0.0004492876
  Conv. limit for RMS grad.  =         0.0003000000
  Conv. for gradients        =                   NO
  Pressure Deviation [bar]   =      -507.5241373580
  Pressure Tolerance [bar]   =       100.0000000000
  Conv. for  PRESSURE        =                   NO
 ---------------------------------------------------

 --------------------------
 OPTIMIZATION STEP:      3
 --------------------------

 CELL| Volume [angstrom^3]:                                           207.676520
 CELL| Vector a [angstrom]:       6.600     0.000     0.000   |a| =     6.600386
 CELL| Vector b [angstrom]:       3.296     5.769     0.000   |b| =     6.644022
 CELL| Vector c [angstrom]:       3.296     1.879     5.454   |c| =     6.644177
 CELL| Angle (b,c), alpha [degree]:                                    60.546583
 CELL| Angle (a,c), beta  [degree]:                                    60.258995
 CELL| Angle (a,b), gamma [degree]:                                    60.257688
 CELL| Numerically orthorhombic:                                              NO

 Number of electrons:                                                         32
 Number of occupied orbitals:                                                 16
 Number of molecular orbitals:                                                16

 Number of orbital functions:                                                 55
 Number of independent orbital functions:                                     55

 Extrapolation method: initial_guess


 SCF WAVEFUNCTION OPTIMIZATION

  Step     Update method      Time    Convergence         Total energy    Change
  ------------------------------------------------------------------------------
     1 Broy./Diag. 0.30E+00    0.2     0.00470907       -65.9882569994 -6.60E+01
     2 Broy./Diag. 0.30E+00    0.3     0.00040321       -65.9887241123 -4.67E-04
     3 Broy./Diag. 0.30E+00    0.3     0.00032802       -65.9885150395  2.09E-04
     4 Broy./Diag. 0.30E+00    0.3     0.00004810       -65.9884044047  1.11E-04
     5 Broy./Diag. 0.30E+00    0.3     0.00000614       -65.9884012316  3.17E-06
     6 Broy./Diag. 0.30E+00    0.3     0.00000591       -65.9884180079 -1.68E-05
     7 Broy./Diag. 0.30E+00    0.3     0.00000189       -65.9884275429 -9.53E-06
     8 Broy./Diag. 0.30E+00    0.3     0.00000016       -65.9884290694 -1.53E-06

  *** SCF run converged in     8 steps ***


  Electronic density on regular grids:        -32.0000003299       -0.0000003299
  Core density on regular grids:               31.9999994955       -0.0000005045
  Total charge density on r-space grids:       -0.0000008344
  Total charge density g-space grids:          -0.0000008344

  Overlap energy of the core charge distribution:               0.00000000000000
  Self energy of the core charge distribution:               -138.89582544120611
  Core Hamiltonian energy:                                     27.20376753260280
  Hartree energy:                                              56.71155560697891
  Exchange-correlation energy:                                -11.00792676774217

  Total energy:                                               -65.98842906936657

 ENERGY| Total FORCE_EVAL ( QS ) energy [a.u.]:              -65.988426931971460

 --------  Informations at step =     3 ------------
  Optimization Method        =                 BFGS
  Total Energy               =       -65.9884269320
  Internal Pressure [bar]    =      -569.9144094623
  Real energy change         =        -0.0000042531
  Predicted change in energy =        -0.0000024019
  Scaling factor             =         0.0000000000
  Step size                  =         0.0045390684
  Trust radius               =         0.4724315332
  Decrease in energy         =                  YES
  Used time                  =                3.761

  Convergence check :
  Max. step size             =         0.0045390684
  Conv. limit for step size  =         0.0030000000
  Convergence in step size   =                   NO
  RMS step size              =         0.0019660763
  Conv. limit for RMS step   =         0.0015000000
  Convergence in RMS step    =                   NO
  Max. gradient              =         0.0011237664
  Conv. limit for gradients  =         0.0000190000
  Conv. for gradients        =                   NO
  RMS gradient               =         0.0004520636
  Conv. limit for RMS grad.  =         0.0003000000
  Conv. for gradients        =                   NO
  Pressure Deviation [bar]   =      -537.0611241406
  Pressure Tolerance [bar]   =       100.0000000000
  Conv. for  PRESSURE        =                   NO
 ---------------------------------------------------

 --------------------------
 OPTIMIZATION STEP:      4
 --------------------------

 CELL| Volume [angstrom^3]:                                           207.822193
 CELL| Vector a [angstrom]:       6.601     0.000     0.000   |a| =     6.600799
 CELL| Vector b [angstrom]:       3.294     5.770     0.000   |b| =     6.644151
 CELL| Vector c [angstrom]:       3.294     1.878     5.456   |c| =     6.644314
 CELL| Angle (b,c), alpha [degree]:                                    60.580342
 CELL| Angle (a,c), beta  [degree]:                                    60.282363
 CELL| Angle (a,b), gamma [degree]:                                    60.280969
 CELL| Numerically orthorhombic:                                              NO

 Number of electrons:                                                         32
 Number of occupied orbitals:                                                 16
 Number of molecular orbitals:                                                16

 Number of orbital functions:                                                 55
 Number of independent orbital functions:                                     55

 Extrapolation method: initial_guess


 SCF WAVEFUNCTION OPTIMIZATION

  Step     Update method      Time    Convergence         Total energy    Change
  ------------------------------------------------------------------------------
     1 Broy./Diag. 0.30E+00    0.2     0.01742370       -65.9878877149 -6.60E+01
     2 Broy./Diag. 0.30E+00    0.3     0.00121648       -65.9894284202 -1.54E-03
     3 Broy./Diag. 0.30E+00    0.3     0.00101705       -65.9887324207  6.96E-04
     4 Broy./Diag. 0.30E+00    0.3     0.00018761       -65.9883845873  3.48E-04
     5 Broy./Diag. 0.30E+00    0.3     0.00001990       -65.9883750219  9.57E-06
     6 Broy./Diag. 0.30E+00    0.3     0.00001840       -65.9884210710 -4.60E-05
     7 Broy./Diag. 0.30E+00    0.3     0.00000631       -65.9884504740 -2.94E-05
     8 Broy./Diag. 0.30E+00    0.3     0.00000052       -65.9884562379 -5.76E-06

  *** SCF run converged in     8 steps ***


  Electronic density on regular grids:        -32.0000008618       -0.0000008618
  Core density on regular grids:               31.9999994922       -0.0000005078
  Total charge density on r-space grids:       -0.0000013697
  Total charge density g-space grids:          -0.0000013697

  Overlap energy of the core charge distribution:               0.00000000000000
  Self energy of the core charge distribution:               -138.89582544120611
  Core Hamiltonian energy:                                     27.20255175011937
  Hartree energy:                                              56.71221497053000
  Exchange-correlation energy:                                -11.00739751738261

  Total energy:                                               -65.98845623793935

 ENERGY| Total FORCE_EVAL ( QS ) energy [a.u.]:              -65.988449865968903

 --------  Informations at step =     4 ------------
  Optimization Method        =                 BFGS
  Total Energy               =       -65.9884498660
  Internal Pressure [bar]    =      -674.4264325008
  Real energy change         =        -0.0000229340
  Predicted change in energy =        -0.0000139865
  Scaling factor             =         0.0000000000
  Step size                  =         0.0165662304
  Trust radius               =         0.4724315332
  Decrease in energy         =                  YES
  Used time                  =                3.821

  Convergence check :
  Max. step size             =         0.0165662304
  Conv. limit for step size  =         0.0030000000
  Convergence in step size   =                   NO
  RMS step size              =         0.0074676668
  Conv. limit for RMS step   =         0.0015000000
  Convergence in RMS step    =                   NO
  Max. gradient              =         0.0010866862
  Conv. limit for gradients  =         0.0000190000
  Conv. for gradients        =                   NO
  RMS gradient               =         0.0004623508
  Conv. limit for RMS grad.  =         0.0003000000
  Conv. for gradients        =                   NO
  Pressure Deviation [bar]   =      -641.5731471791
  Pressure Tolerance [bar]   =       100.0000000000
  Conv. for  PRESSURE        =                   NO
 ---------------------------------------------------

 --------------------------
 OPTIMIZATION STEP:      5
 --------------------------

 CELL| Volume [angstrom^3]:                                           207.942819
 CELL| Vector a [angstrom]:       6.602     0.000     0.000   |a| =     6.602498
 CELL| Vector b [angstrom]:       3.289     5.771     0.000   |b| =     6.642347
 CELL| Vector c [angstrom]:       3.289     1.876     5.458   |c| =     6.642508
 CELL| Angle (b,c), alpha [degree]:                                    60.622720
 CELL| Angle (a,c), beta  [degree]:                                    60.319380
 CELL| Angle (a,b), gamma [degree]:                                    60.317915
 CELL| Numerically orthorhombic:                                              NO

 Number of electrons:                                                         32
 Number of occupied orbitals:                                                 16
 Number of molecular orbitals:                                                16

 Number of orbital functions:                                                 55
 Number of independent orbital functions:                                     55

 Extrapolation method: initial_guess


 SCF WAVEFUNCTION OPTIMIZATION

  Step     Update method      Time    Convergence         Total energy    Change
  ------------------------------------------------------------------------------
     1 Broy./Diag. 0.30E+00    0.2     0.44185264       -65.9878910936 -6.60E+01
     2 Broy./Diag. 0.30E+00    0.3     0.00106905       -65.9895003646 -1.61E-03
     3 Broy./Diag. 0.30E+00    0.3     0.00101482       -65.9887509075  7.49E-04
     4 Broy./Diag. 0.30E+00    0.3     0.00028000       -65.9884283907  3.23E-04
     5 Broy./Diag. 0.30E+00    0.3     0.00003097       -65.9884267473  1.64E-06
     6 Broy./Diag. 0.30E+00    0.3     0.00002559       -65.9884612323 -3.45E-05
     7 Broy./Diag. 0.30E+00    0.3     0.00000611       -65.9884873202 -2.61E-05
     8 Broy./Diag. 0.30E+00    0.3     0.00000088       -65.9884941706 -6.85E-06

  *** SCF run converged in     8 steps ***


  Electronic density on regular grids:        -32.0000002871       -0.0000002871
  Core density on regular grids:               31.9999994928       -0.0000005072
  Total charge density on r-space grids:       -0.0000007943
  Total charge density g-space grids:          -0.0000007943

  Overlap energy of the core charge distribution:               0.00000000000000
  Self energy of the core charge distribution:               -138.89582544120611
  Core Hamiltonian energy:                                     27.20124227371677
  Hartree energy:                                              56.71293807923793
  Exchange-correlation energy:                                -11.00684908230486

  Total energy:                                               -65.98849417055629

 ENERGY| Total FORCE_EVAL ( QS ) energy [a.u.]:              -65.988489040132961

 --------  Informations at step =     5 ------------
  Optimization Method        =                 BFGS
  Total Energy               =       -65.9884890401
  Internal Pressure [bar]    =      -787.4965064250
  Real energy change         =        -0.0000391742
  Predicted change in energy =        -0.0000244159
  Scaling factor             =         0.0000000000
  Step size                  =         0.0262790830
  Trust radius               =         0.4724315332
  Decrease in energy         =                  YES
  Used time                  =                3.806

  Convergence check :
  Max. step size             =         0.0262790830
  Conv. limit for step size  =         0.0030000000
  Convergence in step size   =                   NO
  RMS step size              =         0.0111702241
  Conv. limit for RMS step   =         0.0015000000
  Convergence in RMS step    =                   NO
  Max. gradient              =         0.0009507693
  Conv. limit for gradients  =         0.0000190000
  Conv. for gradients        =                   NO
  RMS gradient               =         0.0004640807
  Conv. limit for RMS grad.  =         0.0003000000
  Conv. for gradients        =                   NO
  Pressure Deviation [bar]   =      -754.6432211032
  Pressure Tolerance [bar]   =       100.0000000000
  Conv. for  PRESSURE        =                   NO
 ---------------------------------------------------

 --------------------------
 OPTIMIZATION STEP:      6
 --------------------------

 CELL| Volume [angstrom^3]:                                           207.974568
 CELL| Vector a [angstrom]:       6.607     0.000     0.000   |a| =     6.607231
 CELL| Vector b [angstrom]:       3.279     5.769     0.000   |b| =     6.635808
 CELL| Vector c [angstrom]:       3.279     1.874     5.456   |c| =     6.635942
 CELL| Angle (b,c), alpha [degree]:                                    60.680025
 CELL| Angle (a,c), beta  [degree]:                                    60.385442
 CELL| Angle (a,b), gamma [degree]:                                    60.383975
 CELL| Numerically orthorhombic:                                              NO

 Number of electrons:                                                         32
 Number of occupied orbitals:                                                 16
 Number of molecular orbitals:                                                16

 Number of orbital functions:                                                 55
 Number of independent orbital functions:                                     55

 Extrapolation method: initial_guess


 SCF WAVEFUNCTION OPTIMIZATION

  Step     Update method      Time    Convergence         Total energy    Change
  ------------------------------------------------------------------------------
     1 Broy./Diag. 0.30E+00    0.2     0.40104196       -65.9880645620 -6.60E+01
     2 Broy./Diag. 0.30E+00    0.3     0.00063413       -65.9893248221 -1.26E-03
     3 Broy./Diag. 0.30E+00    0.3     0.00075028       -65.9887199929  6.05E-04
     4 Broy./Diag. 0.30E+00    0.3     0.00027387       -65.9885145825  2.05E-04
     5 Broy./Diag. 0.30E+00    0.3     0.00004554       -65.9885236109 -9.03E-06
     6 Broy./Diag. 0.30E+00    0.3     0.00004825       -65.9885408729 -1.73E-05
     7 Broy./Diag. 0.30E+00    0.3     0.00000884       -65.9885556898 -1.48E-05
     8 Broy./Diag. 0.30E+00    0.3     0.00000191       -65.9885610180 -5.33E-06
     9 Broy./Diag. 0.30E+00    0.3     0.00000094       -65.9885597464  1.27E-06

  *** SCF run converged in     9 steps ***


  Electronic density on regular grids:        -32.0000006789       -0.0000006789
  Core density on regular grids:               31.9999994968       -0.0000005032
  Total charge density on r-space grids:       -0.0000011820
  Total charge density g-space grids:          -0.0000011820

  Overlap energy of the core charge distribution:               0.00000000000000
  Self energy of the core charge distribution:               -138.89582544120611
  Core Hamiltonian energy:                                     27.20016737784085
  Hartree energy:                                              56.71354406645809
  Exchange-correlation energy:                                -11.00644574951990

  Total energy:                                               -65.98855974642707

 ENERGY| Total FORCE_EVAL ( QS ) energy [a.u.]:              -65.988558257195621

 --------  Informations at step =     6 ------------
  Optimization Method        =                 BFGS
  Total Energy               =       -65.9885582572
  Internal Pressure [bar]    =      -880.6366013817
  Real energy change         =        -0.0000692171
  Predicted change in energy =        -0.0000489528
  Scaling factor             =         0.0000000000
  Step size                  =         0.0468908631
  Trust radius               =         0.4724315332
  Decrease in energy         =                  YES
  Used time                  =                4.085

  Convergence check :
  Max. step size             =         0.0468908631
  Conv. limit for step size  =         0.0030000000
  Convergence in step size   =                   NO
  RMS step size              =         0.0205480967
  Conv. limit for RMS step   =         0.0015000000
  Convergence in RMS step    =                   NO
  Max. gradient              =         0.0010194354
  Conv. limit for gradients  =         0.0000190000
  Conv. for gradients        =                   NO
  RMS gradient               =         0.0004310348
  Conv. limit for RMS grad.  =         0.0003000000
  Conv. for gradients        =                   NO
  Pressure Deviation [bar]   =      -847.7833160600
  Pressure Tolerance [bar]   =       100.0000000000
  Conv. for  PRESSURE        =                   NO
 ---------------------------------------------------

 --------------------------
 OPTIMIZATION STEP:      7
 --------------------------

 CELL| Volume [angstrom^3]:                                           207.760745
 CELL| Vector a [angstrom]:       6.613     0.000     0.000   |a| =     6.613101
 CELL| Vector b [angstrom]:       3.269     5.764     0.000   |b| =     6.626387
 CELL| Vector c [angstrom]:       3.269     1.874     5.451   |c| =     6.626468
 CELL| Angle (b,c), alpha [degree]:                                    60.701353
 CELL| Angle (a,c), beta  [degree]:                                    60.437296
 CELL| Angle (a,b), gamma [degree]:                                    60.435991
 CELL| Numerically orthorhombic:                                              NO

 Number of electrons:                                                         32
 Number of occupied orbitals:                                                 16
 Number of molecular orbitals:                                                16

 Number of orbital functions:                                                 55
 Number of independent orbital functions:                                     55

 Extrapolation method: initial_guess


 SCF WAVEFUNCTION OPTIMIZATION

  Step     Update method      Time    Convergence         Total energy    Change
  ------------------------------------------------------------------------------
     1 Broy./Diag. 0.30E+00    0.2     0.40623267       -65.9888633573 -6.60E+01
     2 Broy./Diag. 0.30E+00    0.3     0.00162043       -65.9875803270  1.28E-03
     3 Broy./Diag. 0.30E+00    0.3     0.00163699       -65.9883752644 -7.95E-04
     4 Broy./Diag. 0.30E+00    0.3     0.00035365       -65.9886804139 -3.05E-04
     5 Broy./Diag. 0.30E+00    0.3     0.00004209       -65.9886684976  1.19E-05
     6 Broy./Diag. 0.30E+00    0.3     0.00004670       -65.9886416841  2.68E-05
     7 Broy./Diag. 0.30E+00    0.3     0.00000524       -65.9886206677  2.10E-05
     8 Broy./Diag. 0.30E+00    0.3     0.00000149       -65.9886144008  6.27E-06
     9 Broy./Diag. 0.30E+00    0.3     0.00000087       -65.9886165954 -2.19E-06

  *** SCF run converged in     9 steps ***


  Electronic density on regular grids:        -31.9999990900        0.0000009100
  Core density on regular grids:               31.9999994955       -0.0000005045
  Total charge density on r-space grids:        0.0000004055
  Total charge density g-space grids:           0.0000004055

  Overlap energy of the core charge distribution:               0.00000000000000
  Self energy of the core charge distribution:               -138.89582544120611
  Core Hamiltonian energy:                                     27.20105551588551
  Hartree energy:                                              56.71302867859350
  Exchange-correlation energy:                                -11.00687534870126

  Total energy:                                               -65.98861659542835

 ENERGY| Total FORCE_EVAL ( QS ) energy [a.u.]:              -65.988618560431746

 --------  Informations at step =     7 ------------
  Optimization Method        =                 BFGS
  Total Energy               =       -65.9886185604
  Internal Pressure [bar]    =      -807.9328177013
  Real energy change         =        -0.0000603032
  Predicted change in energy =        -0.0000456577
  Scaling factor             =         0.0000000000
  Step size                  =         0.0478449357
  Trust radius               =         0.4724315332
  Decrease in energy         =                  YES
  Used time                  =                4.008

  Convergence check :
  Max. step size             =         0.0478449357
  Conv. limit for step size  =         0.0030000000
  Convergence in step size   =                   NO
  RMS step size              =         0.0193088822
  Conv. limit for RMS step   =         0.0015000000
  Convergence in RMS step    =                   NO
  Max. gradient              =         0.0007151020
  Conv. limit for gradients  =         0.0000190000
  Conv. for gradients        =                   NO
  RMS gradient               =         0.0003145210
  Conv. limit for RMS grad.  =         0.0003000000
  Conv. for gradients        =                   NO
  Pressure Deviation [bar]   =      -775.0795323795
  Pressure Tolerance [bar]   =       100.0000000000
  Conv. for  PRESSURE        =                   NO
 ---------------------------------------------------

 --------------------------
 OPTIMIZATION STEP:      8
 --------------------------

 CELL| Volume [angstrom^3]:                                           207.424383
 CELL| Vector a [angstrom]:       6.617     0.000     0.000   |a| =     6.617084
 CELL| Vector b [angstrom]:       3.264     5.758     0.000   |b| =     6.618913
 CELL| Vector c [angstrom]:       3.264     1.875     5.444   |c| =     6.618943
 CELL| Angle (b,c), alpha [degree]:                                    60.679404
 CELL| Angle (a,c), beta  [degree]:                                    60.450778
 CELL| Angle (a,b), gamma [degree]:                                    60.449698
 CELL| Numerically orthorhombic:                                              NO

 Number of electrons:                                                         32
 Number of occupied orbitals:                                                 16
 Number of molecular orbitals:                                                16

 Number of orbital functions:                                                 55
 Number of independent orbital functions:                                     55

 Extrapolation method: initial_guess


 SCF WAVEFUNCTION OPTIMIZATION

  Step     Update method      Time    Convergence         Total energy    Change
  ------------------------------------------------------------------------------
     1 Broy./Diag. 0.30E+00    0.2     0.01329604       -65.9893136156 -6.60E+01
     2 Broy./Diag. 0.30E+00    0.3     0.00278191       -65.9866351867  2.68E-03
     3 Broy./Diag. 0.30E+00    0.3     0.00225128       -65.9879758912 -1.34E-03
     4 Broy./Diag. 0.30E+00    0.3     0.00026523       -65.9887430439 -7.67E-04
     5 Broy./Diag. 0.30E+00    0.3     0.00003575       -65.9888040408 -6.10E-05
     6 Broy./Diag. 0.30E+00    0.3     0.00003489       -65.9887006775  1.03E-04
     7 Broy./Diag. 0.30E+00    0.3     0.00000837       -65.9886479520  5.27E-05
     8 Broy./Diag. 0.30E+00    0.3     0.00000106       -65.9886408814  7.07E-06
     9 Broy./Diag. 0.30E+00    0.3     0.00000187       -65.9886484726 -7.59E-06
    10 Broy./Diag. 0.30E+00    0.3     0.00000015       -65.9886515087 -3.04E-06

  *** SCF run converged in    10 steps ***


  Electronic density on regular grids:        -31.9999996148        0.0000003852
  Core density on regular grids:               31.9999994935       -0.0000005065
  Total charge density on r-space grids:       -0.0000001213
  Total charge density g-space grids:          -0.0000001213

  Overlap energy of the core charge distribution:               0.00000000000000
  Self energy of the core charge distribution:               -138.89582544120611
  Core Hamiltonian energy:                                     27.20296632777531
  Hartree energy:                                              56.71195781874432
  Exchange-correlation energy:                                -11.00775021405641

  Total energy:                                               -65.98865150874290

 ENERGY| Total FORCE_EVAL ( QS ) energy [a.u.]:              -65.988651684836938

 --------  Informations at step =     8 ------------
  Optimization Method        =                 BFGS
  Total Energy               =       -65.9886516848
  Internal Pressure [bar]    =      -655.1379933771
  Real energy change         =        -0.0000331244
  Predicted change in energy =        -0.0000265410
  Scaling factor             =         0.0000000000
  Step size                  =         0.0253489249
  Trust radius               =         0.4724315332
  Decrease in energy         =                  YES
  Used time                  =                4.321

  Convergence check :
  Max. step size             =         0.0253489249
  Conv. limit for step size  =         0.0030000000
  Convergence in step size   =                   NO
  RMS step size              =         0.0122604364
  Conv. limit for RMS step   =         0.0015000000
  Convergence in RMS step    =                   NO
  Max. gradient              =         0.0003552309
  Conv. limit for gradients  =         0.0000190000
  Conv. for gradients        =                   NO
  RMS gradient               =         0.0001911536
  Conv. limit for RMS grad.  =         0.0003000000
  Conv. in RMS gradients     =                  YES
  Pressure Deviation [bar]   =      -622.2847080554
  Pressure Tolerance [bar]   =       100.0000000000
  Conv. for  PRESSURE        =                   NO
 ---------------------------------------------------

 --------------------------
 OPTIMIZATION STEP:      9
 --------------------------

 CELL| Volume [angstrom^3]:                                           207.281490
 CELL| Vector a [angstrom]:       6.617     0.000     0.000   |a| =     6.617284
 CELL| Vector b [angstrom]:       3.265     5.756     0.000   |b| =     6.617700
 CELL| Vector c [angstrom]:       3.265     1.877     5.442   |c| =     6.617719
 CELL| Angle (b,c), alpha [degree]:                                    60.656080
 CELL| Angle (a,c), beta  [degree]:                                    60.438673
 CELL| Angle (a,b), gamma [degree]:                                    60.437674
 CELL| Numerically orthorhombic:                                              NO

 Number of electrons:                                                         32
 Number of occupied orbitals:                                                 16
 Number of molecular orbitals:                                                16

 Number of orbital functions:                                                 55
 Number of independent orbital functions:                                     55

 Extrapolation method: initial_guess


 SCF WAVEFUNCTION OPTIMIZATION

  Step     Update method      Time    Convergence         Total energy    Change
  ------------------------------------------------------------------------------
     1 Broy./Diag. 0.30E+00    0.2     0.21542288       -65.9889831166 -6.60E+01
     2 Broy./Diag. 0.30E+00    0.3     0.00122467       -65.9878428517  1.14E-03
     3 Broy./Diag. 0.30E+00    0.3     0.00096922       -65.9884012336 -5.58E-04
     4 Broy./Diag. 0.30E+00    0.3     0.00013289       -65.9887165385 -3.15E-04
     5 Broy./Diag. 0.30E+00    0.3     0.00001488       -65.9887319818 -1.54E-05
     6 Broy./Diag. 0.30E+00    0.3     0.00001483       -65.9886803011  5.17E-05
     7 Broy./Diag. 0.30E+00    0.3     0.00000428       -65.9886545805  2.57E-05
     8 Broy./Diag. 0.30E+00    0.3     0.00000040       -65.9886514069  3.17E-06

  *** SCF run converged in     8 steps ***


  Electronic density on regular grids:        -31.9999991702        0.0000008298
  Core density on regular grids:               31.9999994958       -0.0000005042
  Total charge density on r-space grids:        0.0000003255
  Total charge density g-space grids:           0.0000003255

  Overlap energy of the core charge distribution:               0.00000000000000
  Self energy of the core charge distribution:               -138.89582544120611
  Core Hamiltonian energy:                                     27.20375480157788
  Hartree energy:                                              56.71153644280108
  Exchange-correlation energy:                                -11.00811721010785

  Total energy:                                               -65.98865140693501

 ENERGY| Total FORCE_EVAL ( QS ) energy [a.u.]:              -65.988656920943072

 --------  Informations at step =     9 ------------
  Optimization Method        =                 BFGS
  Total Energy               =       -65.9886569209
  Internal Pressure [bar]    =      -592.7416245731
  Real energy change         =        -0.0000052361
  Predicted change in energy =        -0.0000044348
  Scaling factor             =         0.0000000000
  Step size                  =         0.0118566301
  Trust radius               =         0.4724315332
  Decrease in energy         =                  YES
  Used time                  =                3.918

  Convergence check :
  Max. step size             =         0.0118566301
  Conv. limit for step size  =         0.0030000000
  Convergence in step size   =                   NO
  RMS step size              =         0.0049300449
  Conv. limit for RMS step   =         0.0015000000
  Convergence in RMS step    =                   NO
  Max. gradient              =         0.0002547282
  Conv. limit for gradients  =         0.0000190000
  Conv. for gradients        =                   NO
  RMS gradient               =         0.0001666263
  Conv. limit for RMS grad.  =         0.0003000000
  Conv. in RMS gradients     =                  YES
  Pressure Deviation [bar]   =      -559.8883392513
  Pressure Tolerance [bar]   =       100.0000000000
  Conv. for  PRESSURE        =                   NO
 ---------------------------------------------------

 --------------------------
 OPTIMIZATION STEP:     10
 --------------------------

 CELL| Volume [angstrom^3]:                                           207.248931
 CELL| Vector a [angstrom]:       6.617     0.000     0.000   |a| =     6.616918
 CELL| Vector b [angstrom]:       3.266     5.756     0.000   |b| =     6.617814
 CELL| Vector c [angstrom]:       3.266     1.877     5.441   |c| =     6.617834
 CELL| Angle (b,c), alpha [degree]:                                    60.649136
 CELL| Angle (a,c), beta  [degree]:                                    60.432943
 CELL| Angle (a,b), gamma [degree]:                                    60.431953
 CELL| Numerically orthorhombic:                                              NO

 Number of electrons:                                                         32
 Number of occupied orbitals:                                                 16
 Number of molecular orbitals:                                                16

 Number of orbital functions:                                                 55
 Number of independent orbital functions:                                     55

 Extrapolation method: initial_guess


 SCF WAVEFUNCTION OPTIMIZATION

  Step     Update method      Time    Convergence         Total energy    Change
  ------------------------------------------------------------------------------
     1 Broy./Diag. 0.30E+00    0.2     0.00405589       -65.9887382348 -6.60E+01
     2 Broy./Diag. 0.30E+00    0.3     0.00027154       -65.9884841095  2.54E-04
     3 Broy./Diag. 0.30E+00    0.3     0.00023119       -65.9886141813 -1.30E-04
     4 Broy./Diag. 0.30E+00    0.3     0.00004442       -65.9886727058 -5.85E-05
     5 Broy./Diag. 0.30E+00    0.3     0.00000444       -65.9886717116  9.94E-07
     6 Broy./Diag. 0.30E+00    0.3     0.00000458       -65.9886630112  8.70E-06
     7 Broy./Diag. 0.30E+00    0.3     0.00000096       -65.9886579467  5.06E-06

  *** SCF run converged in     7 steps ***


  Electronic density on regular grids:        -32.0000014259       -0.0000014259
  Core density on regular grids:               31.9999994960       -0.0000005040
  Total charge density on r-space grids:       -0.0000019299
  Total charge density g-space grids:          -0.0000019299

  Overlap energy of the core charge distribution:               0.00000000000000
  Self energy of the core charge distribution:               -138.89582544120611
  Core Hamiltonian energy:                                     27.20392520824948
  Hartree energy:                                              56.71144288679571
  Exchange-correlation energy:                                -11.00820060048917

  Total energy:                                               -65.98865794665011

 ENERGY| Total FORCE_EVAL ( QS ) energy [a.u.]:              -65.988657848391924

 --------  Informations at step =    10 ------------
  Optimization Method        =                 BFGS
  Total Energy               =       -65.9886578484
  Internal Pressure [bar]    =      -579.5475819693
  Real energy change         =        -0.0000009274
  Predicted change in energy =        -0.0000005847
  Scaling factor             =         0.0000000000
  Step size                  =         0.0044018525
  Trust radius               =         0.4724315332
  Decrease in energy         =                  YES
  Used time                  =                3.560

  Convergence check :
  Max. step size             =         0.0044018525
  Conv. limit for step size  =         0.0030000000
  Convergence in step size   =                   NO
  RMS step size              =         0.0019522949
  Conv. limit for RMS step   =         0.0015000000
  Convergence in RMS step    =                   NO
  Max. gradient              =         0.0002386702
  Conv. limit for gradients  =         0.0000190000
  Conv. for gradients        =                   NO
  RMS gradient               =         0.0001600875
  Conv. limit for RMS grad.  =         0.0003000000
  Conv. in RMS gradients     =                  YES
  Pressure Deviation [bar]   =      -546.6942966476
  Pressure Tolerance [bar]   =       100.0000000000
  Conv. for  PRESSURE        =                   NO
 ---------------------------------------------------

 --------------------------
 OPTIMIZATION STEP:     11
 --------------------------

 CELL| Volume [angstrom^3]:                                           207.210363
 CELL| Vector a [angstrom]:       6.616     0.000     0.000   |a| =     6.616442
 CELL| Vector b [angstrom]:       3.266     5.756     0.000   |b| =     6.617757
 CELL| Vector c [angstrom]:       3.266     1.877     5.441   |c| =     6.617778
 CELL| Angle (b,c), alpha [degree]:                                    60.644196
 CELL| Angle (a,c), beta  [degree]:                                    60.428869
 CELL| Angle (a,b), gamma [degree]:                                    60.427884
 CELL| Numerically orthorhombic:                                              NO

 Number of electrons:                                                         32
 Number of occupied orbitals:                                                 16
 Number of molecular orbitals:                                                16

 Number of orbital functions:                                                 55
 Number of independent orbital functions:                                     55

 Extrapolation method: initial_guess


 SCF WAVEFUNCTION OPTIMIZATION

  Step     Update method      Time    Convergence         Total energy    Change
  ------------------------------------------------------------------------------
     1 Broy./Diag. 0.30E+00    0.2     0.00332196       -65.9887409137 -6.60E+01
     2 Broy./Diag. 0.30E+00    0.3     0.00029791       -65.9884444021  2.97E-04
     3 Broy./Diag. 0.30E+00    0.3     0.00024423       -65.9885950086 -1.51E-04
     4 Broy./Diag. 0.30E+00    0.3     0.00003638       -65.9886702552 -7.52E-05
     5 Broy./Diag. 0.30E+00    0.3     0.00000369       -65.9886742376 -3.98E-06
     6 Broy./Diag. 0.30E+00    0.3     0.00000429       -65.9886649189  9.32E-06
     7 Broy./Diag. 0.30E+00    0.3     0.00000093       -65.9886593664  5.55E-06

  *** SCF run converged in     7 steps ***


  Electronic density on regular grids:        -32.0000015437       -0.0000015437
  Core density on regular grids:               31.9999994961       -0.0000005039
  Total charge density on r-space grids:       -0.0000020476
  Total charge density g-space grids:          -0.0000020476

  Overlap energy of the core charge distribution:               0.00000000000000
  Self energy of the core charge distribution:               -138.89582544120611
  Core Hamiltonian energy:                                     27.20413244865544
  Hartree energy:                                              56.71133280252700
  Exchange-correlation energy:                                -11.00829917641948

  Total energy:                                               -65.98865936644316

 ENERGY| Total FORCE_EVAL ( QS ) energy [a.u.]:              -65.988658949133495

 --------  Informations at step =    11 ------------
  Optimization Method        =                 BFGS
  Total Energy               =       -65.9886589491
  Internal Pressure [bar]    =      -563.5117941955
  Real energy change         =        -0.0000011007
  Predicted change in energy =        -0.0000006643
  Scaling factor             =         0.0000000000
  Step size                  =         0.0039999478
  Trust radius               =         0.4724315332
  Decrease in energy         =                  YES
  Used time                  =                3.645

  Convergence check :
  Max. step size             =         0.0039999478
  Conv. limit for step size  =         0.0030000000
  Convergence in step size   =                   NO
  RMS step size              =         0.0017687242
  Conv. limit for RMS step   =         0.0015000000
  Convergence in RMS step    =                   NO
  Max. gradient              =         0.0002292056
  Conv. limit for gradients  =         0.0000190000
  Conv. for gradients        =                   NO
  RMS gradient               =         0.0001520460
  Conv. limit for RMS grad.  =         0.0003000000
  Conv. in RMS gradients     =                  YES
  Pressure Deviation [bar]   =      -530.6585088737
  Pressure Tolerance [bar]   =       100.0000000000
  Conv. for  PRESSURE        =                   NO
 ---------------------------------------------------

 --------------------------
 OPTIMIZATION STEP:     12
 --------------------------

 CELL| Volume [angstrom^3]:                                           207.118603
 CELL| Vector a [angstrom]:       6.616     0.000     0.000   |a| =     6.615579
 CELL| Vector b [angstrom]:       3.266     5.755     0.000   |b| =     6.616934
 CELL| Vector c [angstrom]:       3.266     1.877     5.440   |c| =     6.616956
 CELL| Angle (b,c), alpha [degree]:                                    60.639875
 CELL| Angle (a,c), beta  [degree]:                                    60.426702
 CELL| Angle (a,b), gamma [degree]:                                    60.425718
 CELL| Numerically orthorhombic:                                              NO

 Number of electrons:                                                         32
 Number of occupied orbitals:                                                 16
 Number of molecular orbitals:                                                16

 Number of orbital functions:                                                 55
 Number of independent orbital functions:                                     55

 Extrapolation method: initial_guess


 SCF WAVEFUNCTION OPTIMIZATION

  Step     Update method      Time    Convergence         Total energy    Change
  ------------------------------------------------------------------------------
     1 Broy./Diag. 0.30E+00    0.2     0.00398999       -65.9888263186 -6.60E+01
     2 Broy./Diag. 0.30E+00    0.3     0.00067257       -65.9881244787  7.02E-04
     3 Broy./Diag. 0.30E+00    0.3     0.00052146       -65.9884731629 -3.49E-04
     4 Broy./Diag. 0.30E+00    0.3     0.00004330       -65.9886747141 -2.02E-04
     5 Broy./Diag. 0.30E+00    0.3     0.00000590       -65.9886976935 -2.30E-05
     6 Broy./Diag. 0.30E+00    0.3     0.00000685       -65.9886753305  2.24E-05
     7 Broy./Diag. 0.30E+00    0.3     0.00000173       -65.9886623666  1.30E-05
     8 Broy./Diag. 0.30E+00    0.3     0.00000025       -65.9886595622  2.80E-06

  *** SCF run converged in     8 steps ***


  Electronic density on regular grids:        -31.9999998931        0.0000001069
  Core density on regular grids:               31.9999994955       -0.0000005045
  Total charge density on r-space grids:       -0.0000003975
  Total charge density g-space grids:          -0.0000003975

  Overlap energy of the core charge distribution:               0.00000000000000
  Self energy of the core charge distribution:               -138.89582544120611
  Core Hamiltonian energy:                                     27.20464066195840
  Hartree energy:                                              56.71105964250765
  Exchange-correlation energy:                                -11.00853442547760

  Total energy:                                               -65.98865956221768

 ENERGY| Total FORCE_EVAL ( QS ) energy [a.u.]:              -65.988661543982118

 --------  Informations at step =    12 ------------
  Optimization Method        =                 BFGS
  Total Energy               =       -65.9886615440
  Internal Pressure [bar]    =      -523.7222071756
  Real energy change         =        -0.0000025948
  Predicted change in energy =        -0.0000015730
  Scaling factor             =         0.0000000000
  Step size                  =         0.0057223993
  Trust radius               =         0.4724315332
  Decrease in energy         =                  YES
  Used time                  =                3.877

  Convergence check :
  Max. step size             =         0.0057223993
  Conv. limit for step size  =         0.0030000000
  Convergence in step size   =                   NO
  RMS step size              =         0.0024879172
  Conv. limit for RMS step   =         0.0015000000
  Convergence in RMS step    =                   NO
  Max. gradient              =         0.0002304881
  Conv. limit for gradients  =         0.0000190000
  Conv. for gradients        =                   NO
  RMS gradient               =         0.0001363414
  Conv. limit for RMS grad.  =         0.0003000000
  Conv. in RMS gradients     =                  YES
  Pressure Deviation [bar]   =      -490.8689218538
  Pressure Tolerance [bar]   =       100.0000000000
  Conv. for  PRESSURE        =                   NO
 ---------------------------------------------------

 --------------------------
 OPTIMIZATION STEP:     13
 --------------------------

 CELL| Volume [angstrom^3]:                                           206.915826
 CELL| Vector a [angstrom]:       6.614     0.000     0.000   |a| =     6.614010
 CELL| Vector b [angstrom]:       3.264     5.753     0.000   |b| =     6.614168
 CELL| Vector c [angstrom]:       3.264     1.877     5.438   |c| =     6.614190
 CELL| Angle (b,c), alpha [degree]:                                    60.640924
 CELL| Angle (a,c), beta  [degree]:                                    60.432482
 CELL| Angle (a,b), gamma [degree]:                                    60.431490
 CELL| Numerically orthorhombic:                                              NO

 Number of electrons:                                                         32
 Number of occupied orbitals:                                                 16
 Number of molecular orbitals:                                                16

 Number of orbital functions:                                                 55
 Number of independent orbital functions:                                     55

 Extrapolation method: initial_guess


 SCF WAVEFUNCTION OPTIMIZATION

  Step     Update method      Time    Convergence         Total energy    Change
  ------------------------------------------------------------------------------
     1 Broy./Diag. 0.30E+00    0.2     0.40336548       -65.9889859833 -6.60E+01
     2 Broy./Diag. 0.30E+00    0.3     0.00144267       -65.9874394124  1.55E-03
     3 Broy./Diag. 0.30E+00    0.3     0.00110994       -65.9882121582 -7.73E-04
     4 Broy./Diag. 0.30E+00    0.3     0.00010946       -65.9886809611 -4.69E-04
     5 Broy./Diag. 0.30E+00    0.3     0.00001162       -65.9887446313 -6.37E-05
     6 Broy./Diag. 0.30E+00    0.3     0.00001218       -65.9886982153  4.64E-05
     7 Broy./Diag. 0.30E+00    0.3     0.00000390       -65.9886685365  2.97E-05
     8 Broy./Diag. 0.30E+00    0.3     0.00000044       -65.9886624014  6.14E-06

  *** SCF run converged in     8 steps ***


  Electronic density on regular grids:        -32.0000005018       -0.0000005018
  Core density on regular grids:               31.9999994950       -0.0000005050
  Total charge density on r-space grids:       -0.0000010068
  Total charge density g-space grids:          -0.0000010068

  Overlap energy of the core charge distribution:               0.00000000000000
  Self energy of the core charge distribution:               -138.89582544120611
  Core Hamiltonian energy:                                     27.20577865144178
  Hartree energy:                                              56.71044306501666
  Exchange-correlation energy:                                -11.00905867667677

  Total energy:                                               -65.98866240142443

 ENERGY| Total FORCE_EVAL ( QS ) energy [a.u.]:              -65.988666654936793

 --------  Informations at step =    13 ------------
  Optimization Method        =                 BFGS
  Total Energy               =       -65.9886666549
  Internal Pressure [bar]    =      -433.9600302670
  Real energy change         =        -0.0000051110
  Predicted change in energy =        -0.0000034248
  Scaling factor             =         0.0000000000
  Step size                  =         0.0075528516
  Trust radius               =         0.4724315332
  Decrease in energy         =                  YES
  Used time                  =                3.786

  Convergence check :
  Max. step size             =         0.0075528516
  Conv. limit for step size  =         0.0030000000
  Convergence in step size   =                   NO
  RMS step size              =         0.0039217542
  Conv. limit for RMS step   =         0.0015000000
  Convergence in RMS step    =                   NO
  Max. gradient              =         0.0002266476
  Conv. limit for gradients  =         0.0000190000
  Conv. for gradients        =                   NO
  RMS gradient               =         0.0001127134
  Conv. limit for RMS grad.  =         0.0003000000
  Conv. in RMS gradients     =                  YES
  Pressure Deviation [bar]   =      -401.1067449452
  Pressure Tolerance [bar]   =       100.0000000000
  Conv. for  PRESSURE        =                   NO
 ---------------------------------------------------

 --------------------------
 OPTIMIZATION STEP:     14
 --------------------------

 CELL| Volume [angstrom^3]:                                           206.670747
 CELL| Vector a [angstrom]:       6.613     0.000     0.000   |a| =     6.612680
 CELL| Vector b [angstrom]:       3.260     5.750     0.000   |b| =     6.609567
 CELL| Vector c [angstrom]:       3.259     1.876     5.435   |c| =     6.609585
 CELL| Angle (b,c), alpha [degree]:                                    60.655024
 CELL| Angle (a,c), beta  [degree]:                                    60.452909
 CELL| Angle (a,b), gamma [degree]:                                    60.451900
 CELL| Numerically orthorhombic:                                              NO

 Number of electrons:                                                         32
 Number of occupied orbitals:                                                 16
 Number of molecular orbitals:                                                16

 Number of orbital functions:                                                 55
 Number of independent orbital functions:                                     55

 Extrapolation method: initial_guess


 SCF WAVEFUNCTION OPTIMIZATION

  Step     Update method      Time    Convergence         Total energy    Change
  ------------------------------------------------------------------------------
     1 Broy./Diag. 0.30E+00    0.2     0.00848326       -65.9889995440 -6.60E+01
     2 Broy./Diag. 0.30E+00    0.3     0.00167146       -65.9871573411  1.84E-03
     3 Broy./Diag. 0.30E+00    0.3     0.00132870       -65.9881117260 -9.54E-04
     4 Broy./Diag. 0.30E+00    0.3     0.00015169       -65.9886830023 -5.71E-04
     5 Broy./Diag. 0.30E+00    0.3     0.00001473       -65.9887627775 -7.98E-05
     6 Broy./Diag. 0.30E+00    0.3     0.00001320       -65.9887168455  4.59E-05
     7 Broy./Diag. 0.30E+00    0.3     0.00000641       -65.9886791454  3.77E-05
     8 Broy./Diag. 0.30E+00    0.3     0.00000055       -65.9886703350  8.81E-06

  *** SCF run converged in     8 steps ***


  Electronic density on regular grids:        -32.0000006316       -0.0000006316
  Core density on regular grids:               31.9999994954       -0.0000005046
  Total charge density on r-space grids:       -0.0000011362
  Total charge density g-space grids:          -0.0000011362

  Overlap energy of the core charge distribution:               0.00000000000000
  Self energy of the core charge distribution:               -138.89582544120611
  Core Hamiltonian energy:                                     27.20715435248954
  Hartree energy:                                              56.70968854973592
  Exchange-correlation energy:                                -11.00968779600118

  Total energy:                                               -65.98867033498183

 ENERGY| Total FORCE_EVAL ( QS ) energy [a.u.]:              -65.988676075465619

 --------  Informations at step =    14 ------------
  Optimization Method        =                 BFGS
  Total Energy               =       -65.9886760755
  Internal Pressure [bar]    =      -331.4696293722
  Real energy change         =        -0.0000094205
  Predicted change in energy =        -0.0000039847
  Scaling factor             =         0.0000000000
  Step size                  =         0.0081673678
  Trust radius               =         0.4724315332
  Decrease in energy         =                  YES
  Used time                  =                3.765

  Convergence check :
  Max. step size             =         0.0081673678
  Conv. limit for step size  =         0.0030000000
  Convergence in step size   =                   NO
  RMS step size              =         0.0047867482
  Conv. limit for RMS step   =         0.0015000000
  Convergence in RMS step    =                   NO
  Max. gradient              =         0.0002116983
  Conv. limit for gradients  =         0.0000190000
  Conv. for gradients        =                   NO
  RMS gradient               =         0.0001048395
  Conv. limit for RMS grad.  =         0.0003000000
  Conv. in RMS gradients     =                  YES
  Pressure Deviation [bar]   =      -298.6163440504
  Pressure Tolerance [bar]   =       100.0000000000
  Conv. for  PRESSURE        =                   NO
 ---------------------------------------------------

 --------------------------
 OPTIMIZATION STEP:     15
 --------------------------

 CELL| Volume [angstrom^3]:                                           206.466347
 CELL| Vector a [angstrom]:       6.612     0.000     0.000   |a| =     6.612058
 CELL| Vector b [angstrom]:       3.254     5.747     0.000   |b| =     6.604452
 CELL| Vector c [angstrom]:       3.254     1.874     5.433   |c| =     6.604463
 CELL| Angle (b,c), alpha [degree]:                                    60.680727
 CELL| Angle (a,c), beta  [degree]:                                    60.484135
 CELL| Angle (a,b), gamma [degree]:                                    60.483105
 CELL| Numerically orthorhombic:                                              NO

 Number of electrons:                                                         32
 Number of occupied orbitals:                                                 16
 Number of molecular orbitals:                                                16

 Number of orbital functions:                                                 55
 Number of independent orbital functions:                                     55

 Extrapolation method: initial_guess


 SCF WAVEFUNCTION OPTIMIZATION

  Step     Update method      Time    Convergence         Total energy    Change
  ------------------------------------------------------------------------------
     1 Broy./Diag. 0.30E+00    0.2     0.39368462       -65.9888880033 -6.60E+01
     2 Broy./Diag. 0.30E+00    0.3     0.00131264       -65.9873766359  1.51E-03
     3 Broy./Diag. 0.30E+00    0.3     0.00113818       -65.9882233531 -8.47E-04
     4 Broy./Diag. 0.30E+00    0.3     0.00017461       -65.9886835874 -4.60E-04
     5 Broy./Diag. 0.30E+00    0.3     0.00002308       -65.9887414665 -5.79E-05
     6 Broy./Diag. 0.30E+00    0.3     0.00001344       -65.9887142794  2.72E-05
     7 Broy./Diag. 0.30E+00    0.3     0.00000686       -65.9886842036  3.01E-05
     8 Broy./Diag. 0.30E+00    0.3     0.00000063       -65.9886756322  8.57E-06

  *** SCF run converged in     8 steps ***


  Electronic density on regular grids:        -32.0000001748       -0.0000001748
  Core density on regular grids:               31.9999994967       -0.0000005033
  Total charge density on r-space grids:       -0.0000006780
  Total charge density g-space grids:          -0.0000006780

  Overlap energy of the core charge distribution:               0.00000000000000
  Self energy of the core charge distribution:               -138.89582544120611
  Core Hamiltonian energy:                                     27.20831996001490
  Hartree energy:                                              56.70904568458869
  Exchange-correlation energy:                                -11.01021583562508

  Total energy:                                               -65.98867563222760

 ENERGY| Total FORCE_EVAL ( QS ) energy [a.u.]:              -65.988680305580985

 --------  Informations at step =    15 ------------
  Optimization Method        =                 BFGS
  Total Energy               =       -65.9886803056
  Internal Pressure [bar]    =      -237.6997809348
  Real energy change         =        -0.0000042301
  Predicted change in energy =        -0.0000035621
  Scaling factor             =         0.0000000000
  Step size                  =         0.0137992931
  Trust radius               =         0.4724315332
  Decrease in energy         =                  YES
  Used time                  =                3.812

  Convergence check :
  Max. step size             =         0.0137992931
  Conv. limit for step size  =         0.0030000000
  Convergence in step size   =                   NO
  RMS step size              =         0.0063940317
  Conv. limit for RMS step   =         0.0015000000
  Convergence in RMS step    =                   NO
  Max. gradient              =         0.0002443255
  Conv. limit for gradients  =         0.0000190000
  Conv. for gradients        =                   NO
  RMS gradient               =         0.0001152553
[...]
 CELL| Angle (a,b), gamma [degree]:                                    60.637474
 CELL| Numerically orthorhombic:                                              NO

 Number of electrons:                                                         32
 Number of occupied orbitals:                                                 16
 Number of molecular orbitals:                                                16

 Number of orbital functions:                                                 55
 Number of independent orbital functions:                                     55

 Extrapolation method: initial_guess


 SCF WAVEFUNCTION OPTIMIZATION

  Step     Update method      Time    Convergence         Total energy    Change
  ------------------------------------------------------------------------------
     1 Broy./Diag. 0.30E+00    0.2     0.36444310       -65.9888646350 -6.60E+01
     2 Broy./Diag. 0.30E+00    0.3     0.00122447       -65.9871263275  1.74E-03
     3 Broy./Diag. 0.30E+00    0.3     0.00098415       -65.9880638721 -9.38E-04
     4 Broy./Diag. 0.30E+00    0.3     0.00012104       -65.9886644370 -6.01E-04
     5 Broy./Diag. 0.30E+00    0.3     0.00001142       -65.9887655949 -1.01E-04
     6 Broy./Diag. 0.30E+00    0.3     0.00001375       -65.9887260016  3.96E-05
     7 Broy./Diag. 0.30E+00    0.3     0.00000403       -65.9886975440  2.85E-05
     8 Broy./Diag. 0.30E+00    0.3     0.00000072       -65.9886904964  7.05E-06

  *** SCF run converged in     8 steps ***


  Electronic density on regular grids:        -32.0000006255       -0.0000006255
  Core density on regular grids:               31.9999994964       -0.0000005036
  Total charge density on r-space grids:       -0.0000011291
  Total charge density g-space grids:          -0.0000011291

  Overlap energy of the core charge distribution:               0.00000000000000
  Self energy of the core charge distribution:               -138.89582544120611
  Core Hamiltonian energy:                                     27.21073326256601
  Hartree energy:                                              56.70767410500109
  Exchange-correlation energy:                                -11.01127242272480

  Total energy:                                               -65.98869049636382

 ENERGY| Total FORCE_EVAL ( QS ) energy [a.u.]:              -65.988694137326050

 --------  Informations at step =    22 ------------
  Optimization Method        =                 BFGS
  Total Energy               =       -65.9886941373
  Internal Pressure [bar]    =       -39.0252341858
  Real energy change         =        -0.0000036107
  Predicted change in energy =        -0.0000024592
  Scaling factor             =         0.0000000000
  Step size                  =         0.0123806551
  Trust radius               =         0.4724315332
  Decrease in energy         =                  YES
  Used time                  =                3.884

  Convergence check :
  Max. step size             =         0.0123806551
  Conv. limit for step size  =         0.0030000000
  Convergence in step size   =                   NO
  RMS step size              =         0.0059193767
  Conv. limit for RMS step   =         0.0015000000
  Convergence in RMS step    =                   NO
  Max. gradient              =         0.0001481165
  Conv. limit for gradients  =         0.0000190000
  Conv. for gradients        =                   NO
  RMS gradient               =         0.0000748508
  Conv. limit for RMS grad.  =         0.0003000000
  Conv. in RMS gradients     =                  YES
  Pressure Deviation [bar]   =        -6.1719488640
  Pressure Tolerance [bar]   =       100.0000000000
  Conv. for  PRESSURE        =                  YES
 ---------------------------------------------------

 --------------------------
 OPTIMIZATION STEP:     23
 --------------------------

 CELL| Volume [angstrom^3]:                                           205.928047
 CELL| Vector a [angstrom]:       6.603     0.000     0.000   |a| =     6.602803
 CELL| Vector b [angstrom]:       3.229     5.742     0.000   |b| =     6.588272
 CELL| Vector c [angstrom]:       3.229     1.865     5.431   |c| =     6.588204
 CELL| Angle (b,c), alpha [degree]:                                    60.854521
 CELL| Angle (a,c), beta  [degree]:                                    60.647954
 CELL| Angle (a,b), gamma [degree]:                                    60.647344
 CELL| Numerically orthorhombic:                                              NO

 Number of electrons:                                                         32
 Number of occupied orbitals:                                                 16
 Number of molecular orbitals:                                                16

 Number of orbital functions:                                                 55
 Number of independent orbital functions:                                     55

 Extrapolation method: initial_guess


 SCF WAVEFUNCTION OPTIMIZATION

  Step     Update method      Time    Convergence         Total energy    Change
  ------------------------------------------------------------------------------
     1 Broy./Diag. 0.30E+00    0.2     0.00393679       -65.9888698565 -6.60E+01
     2 Broy./Diag. 0.30E+00    0.3     0.00084737       -65.9878733427  9.97E-04

 *** SCF run terminated - exceeded requested execution time:      90.000 seconds.

 *** Execution time now:       90.162 seconds.

  Leaving inner SCF loop after reaching     2 steps.


  Electronic density on regular grids:        -31.9983252265        0.0016747735
  Core density on regular grids:               31.9999994953       -0.0000005047
  Total charge density on r-space grids:        0.0016742689
  Total charge density g-space grids:           0.0016742689

  Overlap energy of the core charge distribution:               0.00000000000000
  Self energy of the core charge distribution:               -138.89582544120611
  Core Hamiltonian energy:                                     27.21181620430589
  Hartree energy:                                              56.70725130066691
  Exchange-correlation energy:                                -11.01111540648673

  Total energy:                                               -65.98787334272005

 *** WARNING in qs_scf.F:576 :: SCF run NOT converged ***


 ENERGY| Total FORCE_EVAL ( QS ) energy [a.u.]:              -65.988694150863353

 *** GEO run terminated - exceeded requested execution time:      90.000 seconds.

 *** Execution time now:       91.485 seconds.

 -------------------------------------------------------------------------------
 -                                                                             -
 -                                DBCSR STATISTICS                             -
 -                                                                             -
 -------------------------------------------------------------------------------
 COUNTER                                    TOTAL       BLAS       SMM       ACC
 flops inhomo. stacks                           0       0.0%      0.0%      0.0%
 flops total                         0.000000E+00       0.0%      0.0%      0.0%
 flops max/rank                      0.000000E+00       0.0%      0.0%      0.0%
 matmuls inhomo. stacks                         0       0.0%      0.0%      0.0%
 matmuls total                                  0       0.0%      0.0%      0.0%
 number of processed stacks                     0       0.0%      0.0%      0.0%
 average stack size                                     0.0       0.0       0.0
 marketing flops                     0.000000E+00
 -------------------------------------------------------------------------------
 -                                                                             -
 -                      DBCSR MESSAGE PASSING PERFORMANCE                      -
 -                                                                             -
 -------------------------------------------------------------------------------
 ROUTINE             CALLS      AVE VOLUME [Bytes]
 MP_Bcast                1                     12.
 MP_Allreduce        98862                      8.
 MP_Alltoall        166940                   1436.
 -------------------------------------------------------------------------------

 -------------------------------------------------------------------------------
 -                                                                             -
 -                                GRID STATISTICS                              -
 -                                                                             -
 -------------------------------------------------------------------------------
 LP    KERNEL             BACKEND                              COUNT     PERCENT
 4     collocate general  REF                                1100818      50.00%
 4     integrate general  REF                                 978535      44.44%
 7     integrate general  REF                                 122283       5.55%
 0     collocate general  REF                                     96       0.00%
 3     integrate general  REF                                     96       0.00%
 -------------------------------------------------------------------------------

 MEMORY| Estimated peak process memory [MiB]                                 229

 -------------------------------------------------------------------------------
 -                                                                             -
 -                         MESSAGE PASSING PERFORMANCE                         -
 -                                                                             -
 -------------------------------------------------------------------------------

 ROUTINE             CALLS      AVE VOLUME [Bytes]
 MP_Group              101
 MP_Bcast            71391                   8492.
 MP_Allreduce        48729                     48.
 MP_Sync               146
 MP_Alltoall          3864                 800347.
 MP_ISendRecv        19536                  48322.
 MP_Wait             39936
 MP_comm_split          23
 MP_ISend            23184                    488.
 MP_IRecv            33984                    323.
 MP_Recv             27555                   4383.
 -------------------------------------------------------------------------------


 -------------------------------------------------------------------------------
 -                                                                             -
 -                           R E F E R E N C E S                               -
 -                                                                             -
 -------------------------------------------------------------------------------
 
 CP2K version 8.2, the CP2K developers group (2021).
 CP2K is freely available from https://www.cp2k.org/ .

 Kuehne,Thomas D.; Iannuzzi,Marcella; Del Ben,Mauro;
 Rybkin,Vladimir V.; Seewald,Patrick; Stein,Frederick; Laino,Teodoro;
 Khaliullin,Rustam Z.; Schuett,Ole; Schiffmann,Florian; Golze,Dorothea;
 Wilhelm,Jan; Chulkov,Sergey; Bani-Hashemian,Mohammad Hossein;
 Weber,Valery; Borstnik,Urban; Taillefumier,Mathieu;
 Jakobovits,Alice Shoshana; Lazzaro,Alfio; Pabst,Hans; Mueller,Tiziano;
 Schade,Robert; Guidon,Manuel; Andermatt,Samuel; Holmberg,Nico;
 Schenter,Gregory K.; Hehn,Anna; Bussy,Augustin; Belleflamme,Fabian;
 Tabacchi,Gloria; Gloess,Andreas; Lass,Michael; Bethune,Iain;
 Mundy,Christopher J.; Plessl,Christian; Watkins,Matt;
 VandeVondele,Joost; Krack,Matthias; Hutter,Juerg. 
 The Journal of Chemical Physics, 152 (19), (2020). 
 CP2K: An electronic structure and molecular dynamics software package -
 Quickstep: Efficient and accurate electronic structure calculations.
 https://doi.org/10.1063/5.0007045

 Togo, Atsushi; Tanaka, Isao. arXiv, 1808.01590 (2018). 
 Spglib : a software library for crystal symmetry search.
 https://doi.org/xxx

 Schuett, Ole; Messmer, Peter; Hutter, Juerg; VandeVondele, Joost. 
 Electronic Structure Calculations on Graphics Processing Units, John
 Wiley & Sons, Ltd, 173-190 (2016). 
 GPU-Accelerated Sparse Matrix-Matrix Multiplication for
 Linear Scaling Density Functional Theory.
 https://doi.org/10.1002/9781118670712.ch8

 Heinecke, A; Henry, G; Hutchinson, M; Pabst, H. 
 Proceedings of Intl. Supercomputing Conference, 981-991 (2016). 
 LIBXSMM: Accelerating Small Matrix Multiplications
 by Runtime Code Generation.
 https://doi.org/10.1109/SC.2016.83

 Borstnik, U; VandeVondele, J; Weber, V; Hutter, J. 
 PARALLEL COMPUTING, 40 (5-6), 47-58 (2014). 
 Sparse matrix multiplication: The distributed block-compressed sparse
 row library.
 https://doi.org/10.1016/j.parco.2014.03.012

 Hutter, J; Iannuzzi, M; Schiffmann, F; VandeVondele, J. 
 WIREs Comput Mol Sci., 4 (1), 15-25 (2014). 
 CP2K: atomistic simulations of condensed matter systems.
 https://doi.org/10.1002/wcms.1159

 VandeVondele, J; Hutter, J. 
 JOURNAL OF CHEMICAL PHYSICS, 127 (11), 114105 (2007). 
 Gaussian basis sets for accurate calculations on molecular systems in
 gas and condensed phases.
 https://doi.org/10.1063/1.2770708

 Krack, M. 
 THEORETICAL CHEMISTRY ACCOUNTS, 114 (1-3), 145-152 (2005). 
 Pseudopotentials for H to Kr optimized for gradient-corrected
 exchange-correlation functionals.
 https://doi.org/10.1007/s00214-005-0655-y

 VandeVondele, J; Krack, M; Mohamed, F; Parrinello, M; Chassaing, T;
 Hutter, J. COMPUTER PHYSICS COMMUNICATIONS, 167 (2), 103-128 (2005). 
 QUICKSTEP: Fast and accurate density functional calculations using a
 mixed Gaussian and plane waves approach.
 https://doi.org/10.1016/j.cpc.2004.12.014

 Frigo, M; Johnson, SG. 
 PROCEEDINGS OF THE IEEE, 93 (2), 216-231 (2005). 
 The design and implementation of FFTW3.
 https://doi.org/10.1109/JPROC.2004.840301

 Hartwigsen, C; Goedecker, S; Hutter, J. 
 PHYSICAL REVIEW B, 58 (7), 3641-3662 (1998). 
 Relativistic separable dual-space Gaussian pseudopotentials from H to Rn.
 https://doi.org/10.1103/PhysRevB.58.3641

 Lippert, G; Hutter, J; Parrinello, M. 
 MOLECULAR PHYSICS, 92 (3), 477-487 (1997). 
 A hybrid Gaussian and plane wave density functional scheme.
 https://doi.org/10.1080/002689797170220

 Perdew, JP; Burke, K; Ernzerhof, M. 
 PHYSICAL REVIEW LETTERS, 77 (18), 3865-3868 (1996). 
 Generalized gradient approximation made simple.
 https://doi.org/10.1103/PhysRevLett.77.3865

 Goedecker, S; Teter, M; Hutter, J. 
 PHYSICAL REVIEW B, 54 (3), 1703-1710 (1996). 
 Separable dual-space Gaussian pseudopotentials.
 https://doi.org/10.1103/PhysRevB.54.1703


 -------------------------------------------------------------------------------
 -                                                                             -
 -                                T I M I N G                                  -
 -                                                                             -
 -------------------------------------------------------------------------------
 SUBROUTINE                       CALLS  ASD         SELF TIME        TOTAL TIME
                                MAXIMUM       AVERAGE  MAXIMUM  AVERAGE  MAXIMUM
 CP2K                                 1  1.0    0.005    0.009   91.556   91.558
 cp_cell_opt                          1  2.0    0.000    0.000   91.384   91.438
 geoopt_bfgs                          1  3.0    0.002    0.006   91.384   91.438
 cp_eval_at                          24  4.0    0.003    0.006   84.083   84.083
 qs_forces                           24  5.0    0.005    0.005   84.073   84.075
 qs_energies                         24  6.0    0.020    0.022   71.090   71.130
 scf_env_do_scf                      24  7.0    0.001    0.002   59.510   63.815
 scf_env_do_scf_inner_loop          192  8.0    0.034    0.064   59.509   63.813
 rebuild_ks_matrix                  216  9.7    0.001    0.001   16.013   33.691
 qs_ks_build_kohn_sham_matrix       216 10.7    0.077    0.079   16.012   33.691
 sum_up_and_integrate               216 11.7    0.009    0.010   10.956   28.611
 integrate_v_rspace                 216 12.7    0.021    0.059   10.946   28.601
 grid_integrate_task_list           216 13.7   10.031   27.673   10.031   27.673
 qs_ks_update_qs_env                192  9.0    0.001    0.001   13.059   25.847
 rs_pw_transfer                    1776 13.2    0.011    0.012   16.360   25.182
 dbcsr_desymmetrize_deep          11632 11.3    0.155    0.169   17.159   24.969
 mp_alltoall_i22                  27172 12.5   16.992   24.888   16.992   24.888
 mp_waitall_1                     39936 14.1   15.846   24.665   15.846   24.665
 rs_pw_transfer_RS2PW_100           240 12.8    0.130    0.145   15.723   24.544
 qs_rho_update_rho                  216  9.0    0.001    0.001   24.521   24.538
 calculate_rho_elec                 216 10.0    0.035    0.063   24.520   24.537
 qs_scf_new_mos_kp                  192  9.0    0.001    0.002   16.977   24.256
 do_general_diag_kp                 192 10.0    0.020    0.021   16.976   24.255
 density_rs2pw                      216 11.0    0.005    0.005   15.801   24.188
 grid_collocate_task_list           216 11.0    8.647   23.291    8.647   23.291
 mp_sum_dm                         1486  6.5   10.159   13.372   10.159   13.372
 write_kpoints_restart              192  9.0    0.644    7.550    6.338   10.636
 qs_ks_update_qs_env_forces          24  6.0    0.000    0.000    3.588    8.478
 copy_dbcsr_to_fm                  8560 10.4    0.087    0.089    5.926    6.241
 virial_evaluate                     46  4.5    0.000    0.000    5.245    5.723
 qs_energies_compute_matrix_w        24  7.0    0.000    0.000    4.515    4.945
 write_restart                       22  4.0    0.405    4.847    0.407    4.849
 mp_sum_iv                          256  8.9    4.377    4.809    4.377    4.809
 init_scf_run                        24  7.0    0.001    0.006    4.537    4.596
 scf_env_initial_rho_setup           24  8.0    0.000    0.001    4.536    4.595
 pw_transfer                       4296 13.2    0.095    0.097    3.865    4.435
 fft_wrap_pw1pw2                   3864 14.3    0.017    0.017    3.750    4.317
 qs_vxc_create                      216 11.7    0.002    0.002    4.184    4.208
 xc_vxc_pw_create                   216 12.7    0.240    0.250    4.181    4.206
 build_core_hamiltonian_matrix_      24  6.0    0.015    0.020    2.163    4.112
 mp_sum_d                        100800 12.6    2.738    4.068    2.738    4.068
 fft_wrap_pw1pw2_100               2568 15.3    0.136    0.166    3.429    3.963
 fft3d_ps                          3864 16.3    1.245    1.510    3.146    3.874
 calculate_ecore_overlap             48  7.0    0.000    0.000    2.082    3.380
 dbcsr_complete_redistribute      15540 11.7    0.443    0.476    3.145    3.280
 xc_rho_set_and_dset_create         216 13.7    0.032    0.034    2.650    2.858
 mp_alltoall_z22v                  3864 18.3    1.609    2.585    1.609    2.585
 qs_energies_init_hamiltonians       24  7.0    0.000    0.000    2.083    2.083
 cp_fm_write_unformatted           5511 10.0    1.259    2.014    1.267    2.061
 xc_functional_eval                 216 14.7    0.001    0.001    1.626    1.834
 pbe_lda_eval                       216 15.7    1.625    1.833    1.625    1.833
 -------------------------------------------------------------------------------

 The number of warnings for this run is : 2
 
 -------------------------------------------------------------------------------
  **** **** ******  **  PROGRAM ENDED AT                 2021-06-03 15:30:21.770
 ***** ** ***  *** **   PROGRAM RAN ON                                   mpcl032
 **    ****   ******    PROGRAM RAN BY                                  pubo1141
 ***** **    ** ** **   PROGRAM PROCESS ID                                 11094
  **** **  *******  **  PROGRAM STOPPED IN /user/pubo1141/simulations/aiida_test
                                           s/cp2k_8.2/cell_opt_walltime_low
