192  
12   

1    
  0.0063249717186055   0.0077456266859978   0.0000000000000000
  -0.0001177471   -0.0001206284   -0.0000248665
   0.0000001629   -0.0000026284   -0.0000006465
  -0.0000046771    0.0000097916    0.0000009135
  -0.0000005471    0.0000005716   -0.0000005165
  -0.0000007171    0.0000020016    0.0000001035
  -0.0000014571    0.0000012216   -0.0000008165
  -0.0000035771    0.0000088616    0.0000007435
  -0.0000009171    0.0000008716   -0.0000010565
  -0.0000006471   -0.0000006484   -0.0000000465
  -0.0000014771   -0.0000005684   -0.0000007765
  -0.0000003171   -0.0000000784   -0.0000000565
  -0.0000015871    0.0000000016   -0.0000007365
  -0.0000001171    0.0000007316   -0.0000001265
  -0.0000017371    0.0000005516   -0.0000007965
  -0.0000004471    0.0000000416   -0.0000002765
  -0.0000016571    0.0000000616   -0.0000008765
   0.0000036129   -0.0000000084    0.0000010935
  -0.0000006471   -0.0000015584   -0.0000008665
   0.0000034329   -0.0000025884    0.0000003835
   0.0000009229   -0.0000006084   -0.0000036565
   0.0000021429    0.0000008116   -0.0000007965
  -0.0000001371    0.0000014216   -0.0000016365
   0.0000030029    0.0000013016    0.0000000935
  -0.0000006071    0.0000007816   -0.0000008165
   0.0000050729   -0.0000012284   -0.0000043365
  -0.0000004471   -0.0000017184   -0.0000011965
   0.0000019529   -0.0000013684    0.0000004435
   0.0000007229   -0.0000004484    0.0000007735
   0.0000022729    0.0000007016   -0.0000001965
   0.0000000329    0.0000013016   -0.0000003065
   0.0000028729    0.0000014216   -0.0000011665
  -0.0000007671    0.0000009116   -0.0000010065
   0.0000077229   -0.0000108684   -0.0000165365
   0.0000053029   -0.0000016484    0.0000022335
  -0.0000058071    0.0000045216   -0.0000034465
   0.0000018529   -0.0000002684    0.0000008935
  -0.0000074971    0.0000012916    0.0000006235
   0.0000020929    0.0000009016    0.0000010435
  -0.0000079871    0.0000013216    0.0000016035
   0.0000037229    0.0000016216    0.0000021935
  -0.0000076371   -0.0000004884    0.0000016535
   0.0000022829   -0.0000010184    0.0000003935
  -0.0000074571    0.0000000316    0.0000019735
   0.0000018929    0.0000000216    0.0000013335
  -0.0000075471    0.0000006316    0.0000010435
   0.0000020529    0.0000005316    0.0000009035
  -0.0000076771   -0.0000001484    0.0000004535
   0.0000024829    0.0000004916    0.0000000435
   0.0000330729    0.0000290916    0.0000155735
   0.0000077329   -0.0000017884   -0.0000001965
  -0.0000131571   -0.0000064684   -0.0000034065
   0.0000134029   -0.0000005584   -0.0000023565
  -0.0000026271    0.0000011616   -0.0000011065
   0.0000084729    0.0000015116   -0.0000009165
  -0.0000018371    0.0000017616   -0.0000008465
   0.0000074829    0.0000007116   -0.0000008065
  -0.0000021171   -0.0000003584   -0.0000013965
   0.0000075829   -0.0000004684   -0.0000009165
  -0.0000020071   -0.0000005484   -0.0000007065
   0.0000077829   -0.0000002584   -0.0000008865
  -0.0000020671    0.0000003516   -0.0000008865
   0.0000076529    0.0000004216   -0.0000009165
  -0.0000019271    0.0000006116   -0.0000010965
   0.0000074629    0.0000003416   -0.0000009765
  -0.0000045571    0.0000044016    0.0000127935
   0.0000011429   -0.0000009184    0.0000011035
  -0.0000040771    0.0000047916   -0.0000172765
   0.0000014129   -0.0000007084   -0.0000005865
   0.0000010529    0.0000015916   -0.0000000265
   0.0000005329    0.0000009216   -0.0000002165
   0.0000010429    0.0000015816    0.0000011235
   0.0000003329    0.0000007616    0.0000003535
   0.0000000629   -0.0000014584   -0.0000006065
   0.0000008129   -0.0000005284   -0.0000002665
   0.0000008029   -0.0000008484    0.0000020135
   0.0000004829   -0.0000007984    0.0000002535
   0.0000012929    0.0000011016    0.0000013035
   0.0000001329    0.0000006016    0.0000002835
   0.0000014929    0.0000012616    0.0000002535
   0.0000003429    0.0000007816   -0.0000001565
  -0.0000113171    0.0000013016   -0.0000106265
   0.0000027329   -0.0000003984   -0.0000010865
   0.0000107629    0.0000201016    0.0000329235
   0.0000008329   -0.0000011384   -0.0000001665
   0.0000018629    0.0000018016    0.0000014435
   0.0000005929    0.0000005816   -0.0000002465
   0.0000014429    0.0000013816    0.0000008235
   0.0000009229    0.0000009816   -0.0000005165
   0.0000015229   -0.0000005384    0.0000010735
   0.0000006429   -0.0000002384   -0.0000002365
   0.0000017729   -0.0000006184    0.0000000135
   0.0000007829   -0.0000004084   -0.0000003165
   0.0000020329    0.0000006616    0.0000004735
   0.0000004929    0.0000003016   -0.0000004365
   0.0000020529    0.0000005416    0.0000008635
   0.0000004829    0.0000004016   -0.0000003365
  -0.0000012371   -0.0000008184    0.0000020535
  -0.0000017471   -0.0000005284   -0.0000012965
  -0.0000012071    0.0000001416   -0.0000006565
  -0.0000018471    0.0000000616   -0.0000015465
  -0.0000005071    0.0000007416    0.0000004235
  -0.0000020871    0.0000005216   -0.0000008965
  -0.0000004571    0.0000003216    0.0000017735
  -0.0000020171   -0.0000000084   -0.0000005265
  -0.0000044871   -0.0000083884   -0.0000057865
  -0.0000009671   -0.0000011384   -0.0000001265
  -0.0000012471    0.0000016516    0.0000017035
  -0.0000015371    0.0000003616   -0.0000001265
  -0.0000005971    0.0000012216    0.0000002935
  -0.0000020071    0.0000008016   -0.0000006365
  -0.0000023171    0.0000029616   -0.0000022665
  -0.0000017671    0.0000000216   -0.0000007365
   0.0000133729   -0.0000079184    0.0000069935
   0.0000103529   -0.0000078784   -0.0000053965
   0.0000040029    0.0000044316    0.0000035735
  -0.0000032671    0.0000009216    0.0000000635
   0.0000006629    0.0000015916    0.0000010935
  -0.0000023171    0.0000015916    0.0000004935
  -0.0000003371    0.0000009716    0.0000007435
   0.0000009729    0.0000044616    0.0000012035
   0.0000007329   -0.0000005984    0.0000006635
  -0.0000022371   -0.0000005984    0.0000007635
   0.0000008729    0.0000000716    0.0000004135
  -0.0000024571   -0.0000002184    0.0000004835
   0.0000005429    0.0000006516    0.0000007735
  -0.0000024271    0.0000006516    0.0000005135
   0.0000003629   -0.0000000884    0.0000009835
  -0.0000022571    0.0000002116    0.0000006135
  -0.0000066571   -0.0000087384    0.0000188335
  -0.0000038071    0.0000032816   -0.0000016865
   0.0000149029    0.0000085716   -0.0000088665
  -0.0000071571    0.0000008616   -0.0000061265
   0.0000005629   -0.0000028084   -0.0000041265
  -0.0000037071   -0.0000025684   -0.0000031365
  -0.0000005371   -0.0000051184   -0.0000031765
  -0.0000022271   -0.0000014884   -0.0000024965
  -0.0000007071    0.0000001516   -0.0000042165
  -0.0000024171    0.0000009416   -0.0000025265
   0.0000000729    0.0000019416   -0.0000036565
  -0.0000028571    0.0000007216   -0.0000018065
  -0.0000003571   -0.0000008284   -0.0000027165
  -0.0000024571   -0.0000008984   -0.0000021465
  -0.0000007271   -0.0000012484   -0.0000034565
  -0.0000020871   -0.0000007184   -0.0000026565
   0.0000239829    0.0000195316    0.0000126335
  -0.0000040771    0.0000047016   -0.0000012965
   0.0000058429   -0.0000011584    0.0000010035
  -0.0000027171   -0.0000022084   -0.0000003165
   0.0000015729   -0.0000027384   -0.0000015165
   0.0000008029   -0.0000019684   -0.0000024365
   0.0000018229   -0.0000073384   -0.0000070965
   0.0000011629   -0.0000005084   -0.0000034865
   0.0000019729    0.0000026216    0.0000001135
   0.0000001629    0.0000012216   -0.0000029865
   0.0000017029   -0.0000000784   -0.0000026865
   0.0000005029   -0.0000000984   -0.0000035365
   0.0000013029   -0.0000015784   -0.0000014165
   0.0000010929   -0.0000011984   -0.0000027565
   0.0000013929   -0.0000009584    0.0000017735
   0.0000011029    0.0000001116   -0.0000021965
   0.0000104629    0.0000187716    0.0000022635
  -0.0000105771    0.0000009516    0.0000008035
   0.0000296329    0.0000363016   -0.0000017365
  -0.0000019171    0.0000032716    0.0000016835
  -0.0000011371   -0.0000064684    0.0000024835
  -0.0000012671   -0.0000013884    0.0000016435
   0.0000001029   -0.0000027884    0.0000023735
  -0.0000023571   -0.0000025184    0.0000008935
  -0.0000005871    0.0000012916    0.0000026635
  -0.0000018271    0.0000006116    0.0000020535
  -0.0000008571    0.0000006816    0.0000021935
  -0.0000014371    0.0000009516    0.0000014435
  -0.0000011871   -0.0000010284    0.0000024335
  -0.0000011871   -0.0000006084    0.0000014035
  -0.0000009571   -0.0000008884    0.0000028335
  -0.0000014571   -0.0000009084    0.0000017835
   0.0000045929    0.0000034516    0.0000065535
  -0.0000010571    0.0000011216    0.0000020635
   0.0000022929   -0.0000013684    0.0000069135
   0.0000000129    0.0000006916    0.0000037535
   0.0000023429   -0.0000017784    0.0000028435
   0.0000005029   -0.0000013084    0.0000031135
   0.0000034529   -0.0000004884    0.0000011935
  -0.0000001471   -0.0000003784    0.0000019935
   0.0000023629    0.0000082716   -0.0000057765
  -0.0000021271    0.0000040116    0.0000051235
   0.0000009729   -0.0000057184   -0.0000033665
   0.0000011029   -0.0000003284    0.0000023535
   0.0000023529   -0.0000025584    0.0000023135
   0.0000004629   -0.0000017684    0.0000031335
   0.0000051629   -0.0000016784    0.0000047935
  -0.0000023271   -0.0000019784    0.0000047935

1    
 -0.0063249717186055  -0.0077456266859978   0.0000000000000000
   0.0001177311    0.0001177738    0.0000239538
  -0.0000040789    0.0000026338   -0.0000009063
   0.0000048711   -0.0000097162   -0.0000010963
  -0.0000033589   -0.0000005662   -0.0000010263
   0.0000009311   -0.0000019962   -0.0000002763
  -0.0000024589   -0.0000012162   -0.0000007363
   0.0000038111   -0.0000089062   -0.0000009263
  -0.0000029989   -0.0000008662   -0.0000004963
   0.0000008511    0.0000006538   -0.0000001263
  -0.0000024289    0.0000005738   -0.0000007663
   0.0000005311    0.0000000738   -0.0000001163
  -0.0000023289    0.0000000038   -0.0000008063
   0.0000003311   -0.0000007162   -0.0000000463
  -0.0000021689   -0.0000005462   -0.0000007463
   0.0000006611   -0.0000000362    0.0000001037
  -0.0000022489   -0.0000000562   -0.0000006763
   0.0000013111    0.0000000338   -0.0000021463
  -0.0000004089    0.0000015638   -0.0000007963
   0.0000014811    0.0000025638   -0.0000014263
  -0.0000019689    0.0000006138    0.0000019737
   0.0000027611   -0.0000008062   -0.0000002563
  -0.0000009189   -0.0000014162   -0.0000000363
   0.0000018911   -0.0000012962   -0.0000011463
  -0.0000004489   -0.0000007762   -0.0000008563
  -0.0000001689    0.0000012238    0.0000032737
  -0.0000006089    0.0000017238   -0.0000004763
   0.0000029511    0.0000013838   -0.0000014963
  -0.0000017689    0.0000004538   -0.0000024363
   0.0000026311   -0.0000006962   -0.0000008563
  -0.0000010789   -0.0000012862   -0.0000013663
   0.0000020311   -0.0000014062    0.0000001137
  -0.0000002889   -0.0000009062   -0.0000006663
  -0.0000227089    0.0000107838    0.0000184138
  -0.0000013389    0.0000016638   -0.0000004163
  -0.0000091489   -0.0000044862    0.0000053738
   0.0000021011    0.0000002638    0.0000009437
  -0.0000074889   -0.0000012862    0.0000013137
   0.0000018611   -0.0000008962    0.0000008037
  -0.0000069989   -0.0000013062    0.0000003437
   0.0000002211   -0.0000016262   -0.0000003663
  -0.0000073389    0.0000004938    0.0000002837
   0.0000016711    0.0000010238    0.0000014538
  -0.0000075289   -0.0000000262   -0.0000000363
   0.0000020511   -0.0000000162    0.0000005137
  -0.0000074389   -0.0000006262    0.0000008937
   0.0000019011   -0.0000005262    0.0000009437
  -0.0000072989    0.0000001538    0.0000014837
   0.0000014711   -0.0000004862    0.0000018037
  -0.0000373789   -0.0000293262   -0.0000175762
   0.0000072211    0.0000017738   -0.0000017163
   0.0000092611    0.0000063538    0.0000016037
   0.0000015811    0.0000005838    0.0000004337
  -0.0000013389   -0.0000011562   -0.0000007263
   0.0000065011   -0.0000015062   -0.0000010063
  -0.0000021289   -0.0000017662   -0.0000009762
   0.0000074911   -0.0000007062   -0.0000011163
  -0.0000018389    0.0000003638   -0.0000004363
   0.0000073811    0.0000004638   -0.0000009962
  -0.0000019489    0.0000005538   -0.0000011163
   0.0000071911    0.0000002638   -0.0000010263
  -0.0000018889   -0.0000003462   -0.0000009463
   0.0000073211   -0.0000004162   -0.0000010063
  -0.0000020389   -0.0000005962   -0.0000007263
   0.0000075011   -0.0000003362   -0.0000009363
   0.0000084911   -0.0000043462   -0.0000112262
  -0.0000013689    0.0000009338   -0.0000009163
   0.0000079311   -0.0000048062    0.0000187638
  -0.0000016389    0.0000007138    0.0000007737
   0.0000028511   -0.0000015862    0.0000015837
  -0.0000007589   -0.0000009162    0.0000004037
   0.0000028611   -0.0000015762    0.0000004337
  -0.0000005589   -0.0000007462   -0.0000001663
   0.0000038411    0.0000014538    0.0000021637
  -0.0000010389    0.0000005338    0.0000004637
   0.0000030911    0.0000008538   -0.0000004463
  -0.0000006989    0.0000008038   -0.0000000663
   0.0000026011   -0.0000010962    0.0000002537
  -0.0000003489   -0.0000005962   -0.0000000863
   0.0000024111   -0.0000012562    0.0000013038
  -0.0000005589   -0.0000007762    0.0000003437
   0.0000158611   -0.0000011962    0.0000121738
  -0.0000021289    0.0000004038    0.0000002737
  -0.0000061789   -0.0000199562   -0.0000310363
  -0.0000002289    0.0000011438   -0.0000006463
   0.0000026711   -0.0000017962    0.0000001637
   0.0000000111   -0.0000005762   -0.0000005763
   0.0000030911   -0.0000013762    0.0000007837
  -0.0000003189   -0.0000009762   -0.0000002963
   0.0000030111    0.0000005438    0.0000005337
  -0.0000000389    0.0000002438   -0.0000005763
   0.0000027611    0.0000006238    0.0000015937
  -0.0000001789    0.0000004138   -0.0000004963
   0.0000025011   -0.0000006562    0.0000011337
   0.0000001111   -0.0000002962   -0.0000003763
   0.0000024811   -0.0000005362    0.0000007437
   0.0000001111   -0.0000003962   -0.0000004763
   0.0000006111    0.0000008238   -0.0000012063
  -0.0000027989    0.0000005338   -0.0000003063
   0.0000005911   -0.0000001362    0.0000014837
  -0.0000026989   -0.0000000562   -0.0000000563
  -0.0000001089   -0.0000007362    0.0000004037
  -0.0000024589   -0.0000005162   -0.0000007063
  -0.0000001589   -0.0000003062   -0.0000009562
  -0.0000025389    0.0000000138   -0.0000010763
   0.0000038911    0.0000083938    0.0000065337
  -0.0000035789    0.0000011438   -0.0000014662
   0.0000006211   -0.0000016362   -0.0000008763
  -0.0000030189   -0.0000003462   -0.0000014763
  -0.0000000089   -0.0000012162    0.0000005437
  -0.0000025389   -0.0000007962   -0.0000009562
   0.0000016911   -0.0000029562    0.0000030937
  -0.0000027789   -0.0000000162   -0.0000008563
  -0.0000122689    0.0000078638   -0.0000052663
  -0.0000152989    0.0000079138    0.0000064837
  -0.0000029389   -0.0000044062   -0.0000018963
  -0.0000016489   -0.0000009162    0.0000010138
   0.0000003811   -0.0000015862    0.0000005937
  -0.0000026089   -0.0000015862    0.0000005737
   0.0000013711   -0.0000009562    0.0000009337
  -0.0000058889   -0.0000044562   -0.0000001263
   0.0000003111    0.0000006038    0.0000010237
  -0.0000026789    0.0000006038    0.0000003137
   0.0000001711   -0.0000000662    0.0000012737
  -0.0000024589    0.0000002238    0.0000005837
   0.0000005011   -0.0000006462    0.0000009137
  -0.0000024889   -0.0000006462    0.0000005637
   0.0000006811    0.0000000938    0.0000007037
  -0.0000026589   -0.0000001962    0.0000004537
   0.0000045711    0.0000083138   -0.0000247362
  -0.0000000789   -0.0000032562   -0.0000035263
  -0.0000166089   -0.0000084962    0.0000027437
   0.0000032611   -0.0000008562    0.0000009037
  -0.0000023089    0.0000028138   -0.0000020263
  -0.0000001789    0.0000025738   -0.0000020763
  -0.0000012189    0.0000051238   -0.0000029663
  -0.0000016489    0.0000014938   -0.0000027263
  -0.0000010489   -0.0000001562   -0.0000019363
  -0.0000014689   -0.0000009362   -0.0000026863
  -0.0000018289   -0.0000019262   -0.0000025063
  -0.0000010289   -0.0000007162   -0.0000034063
  -0.0000013989    0.0000008338   -0.0000034363
  -0.0000014289    0.0000009038   -0.0000030763
  -0.0000010289    0.0000012538   -0.0000026863
  -0.0000017889    0.0000007238   -0.0000025563
  -0.0000221389   -0.0000194462   -0.0000160262
   0.0000068511   -0.0000046962   -0.0000038763
  -0.0000037989    0.0000011638   -0.0000040263
   0.0000055111    0.0000022138   -0.0000048563
   0.0000004511    0.0000027438   -0.0000015262
   0.0000019811    0.0000019738   -0.0000027363
   0.0000001811    0.0000073838    0.0000041037
   0.0000016311    0.0000005038   -0.0000016963
   0.0000000511   -0.0000026162   -0.0000031463
   0.0000026311   -0.0000012162   -0.0000021963
   0.0000003211    0.0000000838   -0.0000003563
   0.0000022811    0.0000001038   -0.0000016463
   0.0000007111    0.0000015838   -0.0000016263
   0.0000016911    0.0000012038   -0.0000024163
   0.0000006211    0.0000009638   -0.0000048062
   0.0000016811   -0.0000001062   -0.0000029863
  -0.0000132289   -0.0000187162    0.0000029337
   0.0000086011   -0.0000009562    0.0000022437
  -0.0000305489   -0.0000341962    0.0000064338
  -0.0000001289   -0.0000032662    0.0000013837
  -0.0000016789    0.0000064638    0.0000027137
  -0.0000007689    0.0000014038    0.0000014138
  -0.0000029089    0.0000027938    0.0000028237
   0.0000003311    0.0000025238    0.0000021537
  -0.0000022089   -0.0000012862    0.0000025237
  -0.0000002089   -0.0000006062    0.0000009938
  -0.0000019389   -0.0000006762    0.0000029937
  -0.0000005889   -0.0000009462    0.0000016037
  -0.0000016089    0.0000010338    0.0000027537
  -0.0000008489    0.0000006138    0.0000016538
  -0.0000018389    0.0000008938    0.0000023537
  -0.0000005789    0.0000009138    0.0000012637
  -0.0000007089   -0.0000034262   -0.0000013062
   0.0000027811   -0.0000011162    0.0000040937
   0.0000015711    0.0000013638   -0.0000016763
   0.0000017311   -0.0000006762    0.0000024037
   0.0000015211    0.0000017838    0.0000023837
   0.0000012411    0.0000013138    0.0000030537
   0.0000004211    0.0000004838    0.0000040338
   0.0000018911    0.0000003838    0.0000041737
   0.0000015311   -0.0000082262    0.0000109937
   0.0000038811   -0.0000040062    0.0000010338
   0.0000028911    0.0000056838    0.0000085637
   0.0000006411    0.0000003338    0.0000038137
   0.0000015111    0.0000025538    0.0000029137
   0.0000012811    0.0000017738    0.0000030337
  -0.0000012889    0.0000016738    0.0000004437
   0.0000040611    0.0000019838    0.0000013737

1    
  0.0000000000000000   0.0000000000000000   0.0100000000000000
  -0.0000376505   -0.0000000000   -0.0001779442
  -0.0000017605   -0.0000000000   -0.0000026042
   0.0000015695   -0.0000001100   -0.0000038942
  -0.0000019805   -0.0000003400   -0.0000016042
   0.0000004095   -0.0000000000   -0.0000010342
  -0.0000020205   -0.0000000000   -0.0000011442
   0.0000015695    0.0000001100   -0.0000038942
  -0.0000019805    0.0000003400   -0.0000016042
   0.0000001695   -0.0000000000    0.0000023258
  -0.0000019605   -0.0000000000    0.0000004658
  -0.0000000105   -0.0000001300    0.0000011758
  -0.0000020005   -0.0000000800    0.0000000158
   0.0000000495   -0.0000000000    0.0000005758
  -0.0000020005   -0.0000000000   -0.0000002742
  -0.0000000105    0.0000001300    0.0000011758
  -0.0000020005    0.0000000800    0.0000000158
   0.0000046795    0.0000030900    0.0000020158
  -0.0000015005    0.0000012600   -0.0000004942
   0.0000046795   -0.0000030900    0.0000020158
  -0.0000015005   -0.0000012600   -0.0000004942
   0.0000026895   -0.0000006200   -0.0000002342
  -0.0000008005   -0.0000004400   -0.0000008242
   0.0000026895    0.0000006200   -0.0000002342
  -0.0000008005    0.0000004400   -0.0000008242
   0.0000004395   -0.0000004700    0.0000020158
   0.0000017495   -0.0000018100   -0.0000004942
   0.0000004395    0.0000004700    0.0000020158
   0.0000017495    0.0000018100   -0.0000004942
   0.0000021695    0.0000005800   -0.0000002242
   0.0000000995    0.0000005300   -0.0000008242
   0.0000021695   -0.0000005800   -0.0000002242
   0.0000000995   -0.0000005300   -0.0000008242
  -0.0000341005   -0.0000000000    0.0000118258
   0.0000058595   -0.0000000000   -0.0000010942
  -0.0000082605   -0.0000015100    0.0000015858
   0.0000027395   -0.0000008400    0.0000004058
  -0.0000075805   -0.0000000000    0.0000007458
   0.0000021495   -0.0000000000    0.0000006358
  -0.0000082605    0.0000015100    0.0000015858
   0.0000027395    0.0000008400    0.0000004058
  -0.0000073805   -0.0000000000    0.0000035558
   0.0000012495   -0.0000000000    0.0000020958
  -0.0000073205    0.0000002800    0.0000020358
   0.0000016695    0.0000002900    0.0000016858
  -0.0000074305   -0.0000000000    0.0000013858
   0.0000018595   -0.0000000000    0.0000012458
  -0.0000073205   -0.0000002800    0.0000020358
   0.0000016695   -0.0000002900    0.0000016858
   0.0000084295    0.0000099300   -0.0000125042
   0.0000065295    0.0000004100   -0.0000014942
   0.0000084295   -0.0000099300   -0.0000125042
   0.0000065295   -0.0000004100   -0.0000014942
  -0.0000016805   -0.0000002500   -0.0000023542
   0.0000074395   -0.0000002600   -0.0000014142
  -0.0000016805    0.0000002500   -0.0000023542
   0.0000074395    0.0000002600   -0.0000014142
  -0.0000022605   -0.0000004300    0.0000009058
   0.0000076795   -0.0000002100    0.0000001758
  -0.0000022605    0.0000004300    0.0000009058
   0.0000076795    0.0000002100    0.0000001758
  -0.0000021305    0.0000001600   -0.0000001242
   0.0000074895    0.0000000800   -0.0000003742
  -0.0000021305   -0.0000001600   -0.0000001242
   0.0000074895   -0.0000000800   -0.0000003742
  -0.0000027705    0.0000192900    0.0000172658
   0.0000001495    0.0000010800    0.0000002058
  -0.0000027705   -0.0000192900    0.0000172658
   0.0000001495   -0.0000010800    0.0000002058
   0.0000015995   -0.0000007300    0.0000006358
  -0.0000001505   -0.0000003600   -0.0000001042
   0.0000015995    0.0000007300    0.0000006358
  -0.0000001505    0.0000003600   -0.0000001042
   0.0000018295   -0.0000017000    0.0000030358
  -0.0000002805   -0.0000003400    0.0000004758
   0.0000018295    0.0000017000    0.0000030358
  -0.0000002805    0.0000003400    0.0000004758
   0.0000019595    0.0000006800    0.0000014758
  -0.0000001705    0.0000002900    0.0000003558
   0.0000019595   -0.0000006800    0.0000014758
  -0.0000001705   -0.0000002900    0.0000003558
   0.0000174595   -0.0000274500    0.0000155858
  -0.0000012505   -0.0000001900   -0.0000015542
   0.0000174595    0.0000274500    0.0000155858
  -0.0000012505    0.0000001900   -0.0000015542
   0.0000025295    0.0000004700   -0.0000003342
  -0.0000001205    0.0000003100   -0.0000008642
   0.0000025295   -0.0000004700   -0.0000003342
  -0.0000001205   -0.0000003100   -0.0000008642
   0.0000020595    0.0000008600    0.0000029158
   0.0000006395    0.0000003700    0.0000006758
   0.0000020595   -0.0000008600    0.0000029158
   0.0000006395   -0.0000003700    0.0000006758
   0.0000023495   -0.0000002800    0.0000015458
   0.0000004095   -0.0000001800    0.0000001358
   0.0000023495    0.0000002800    0.0000015458
   0.0000004095    0.0000001800    0.0000001358
  -0.0000003705   -0.0000000000    0.0000065958
  -0.0000022905   -0.0000000000    0.0000000758
  -0.0000001105   -0.0000011700    0.0000016458
  -0.0000022805   -0.0000002600   -0.0000004742
  -0.0000002805   -0.0000000000    0.0000006258
  -0.0000022805   -0.0000000000   -0.0000006642
  -0.0000001105    0.0000011700    0.0000016458
  -0.0000022805    0.0000002600   -0.0000004742
  -0.0000088305   -0.0000000000    0.0000322358
  -0.0000016605   -0.0000000000   -0.0000013842
   0.0000003495    0.0000021500    0.0000021458
  -0.0000022305    0.0000001700   -0.0000011842
  -0.0000003005   -0.0000000000    0.0000006058
  -0.0000022505   -0.0000000000   -0.0000009742
   0.0000003495   -0.0000021500    0.0000021458
  -0.0000022305   -0.0000001700   -0.0000011842
   0.0000099195   -0.0000000000   -0.0000025142
  -0.0000121705   -0.0000000000   -0.0000028142
   0.0000003895   -0.0000007300   -0.0000014142
  -0.0000045505    0.0000018400   -0.0000017142
   0.0000005995   -0.0000000000    0.0000002358
  -0.0000028505   -0.0000000000   -0.0000000742
   0.0000003895    0.0000007300   -0.0000014142
  -0.0000045505   -0.0000018400   -0.0000017142
   0.0000001795   -0.0000000000    0.0000027958
  -0.0000021805   -0.0000000000    0.0000024958
   0.0000005095   -0.0000000800    0.0000018758
  -0.0000022405   -0.0000003600    0.0000015658
   0.0000005695   -0.0000000000    0.0000013858
  -0.0000023605   -0.0000000000    0.0000010758
   0.0000005095    0.0000000800    0.0000018758
  -0.0000022405    0.0000003600    0.0000015658
   0.0000092195    0.0000140300    0.0000024458
  -0.0000023405    0.0000009900    0.0000003858
   0.0000092195   -0.0000140300    0.0000024458
  -0.0000023405   -0.0000009900    0.0000003858
  -0.0000008605   -0.0000020600   -0.0000012842
  -0.0000017505    0.0000001200   -0.0000014142
  -0.0000008605    0.0000020600   -0.0000012842
  -0.0000017505   -0.0000001200   -0.0000014142
  -0.0000012805   -0.0000016200   -0.0000075542
  -0.0000016905   -0.0000006000   -0.0000044842
  -0.0000012805    0.0000016200   -0.0000075542
  -0.0000016905    0.0000006000   -0.0000044842
  -0.0000010105    0.0000005700   -0.0000044342
  -0.0000019005    0.0000003000   -0.0000035442
  -0.0000010105   -0.0000005700   -0.0000044342
  -0.0000019005   -0.0000003000   -0.0000035442
   0.0000263395   -0.0000000000    0.0000613458
   0.0000057295   -0.0000000000   -0.0000021342
  -0.0000004105    0.0000054400   -0.0000004242
   0.0000017395    0.0000010600   -0.0000021642
   0.0000008395   -0.0000000000   -0.0000008142
   0.0000015395   -0.0000000000   -0.0000021042
  -0.0000004105   -0.0000054400   -0.0000004242
   0.0000017395   -0.0000010600   -0.0000021642
   0.0000029895   -0.0000000000   -0.0000096842
  -0.0000002805   -0.0000000000   -0.0000044442
   0.0000015595   -0.0000011500   -0.0000040742
   0.0000009495   -0.0000005000   -0.0000036842
   0.0000012695   -0.0000000000   -0.0000023142
   0.0000012695   -0.0000000000   -0.0000031442
   0.0000015595    0.0000011500   -0.0000040742
   0.0000009495    0.0000005000   -0.0000036842
  -0.0000042905    0.0000022600    0.0000249158
  -0.0000026305   -0.0000016700    0.0000066558
  -0.0000042905   -0.0000022600    0.0000249158
  -0.0000026305    0.0000016700    0.0000066558
  -0.0000017305    0.0000008200    0.0000040458
  -0.0000008005    0.0000000800    0.0000033058
  -0.0000017305   -0.0000008200    0.0000040458
  -0.0000008005   -0.0000000800    0.0000033058
  -0.0000014305    0.0000007800   -0.0000010642
  -0.0000007305    0.0000001900   -0.0000007042
  -0.0000014305   -0.0000007800   -0.0000010642
  -0.0000007305   -0.0000001900   -0.0000007042
  -0.0000014205   -0.0000002300    0.0000011258
  -0.0000008805   -0.0000001200    0.0000003658
  -0.0000014205    0.0000002300    0.0000011258
  -0.0000008805    0.0000001200    0.0000003658
   0.0000059495   -0.0000000000   -0.0000050642
  -0.0000017105   -0.0000000000   -0.0000001942
   0.0000032595    0.0000023100    0.0000007858
  -0.0000001005    0.0000014300    0.0000023758
   0.0000020595   -0.0000000000    0.0000022558
   0.0000006695   -0.0000000000    0.0000029158
   0.0000032595   -0.0000023100    0.0000007858
  -0.0000001005   -0.0000014300    0.0000023758
  -0.0000103605   -0.0000000000   -0.0000138042
   0.0000037595   -0.0000000000    0.0000026658
  -0.0000007905   -0.0000052400    0.0000006858
   0.0000027095   -0.0000011900    0.0000026758
   0.0000016095   -0.0000000000    0.0000028658
   0.0000012295   -0.0000000000    0.0000031858
  -0.0000007905    0.0000052400    0.0000006858
   0.0000027095    0.0000011900    0.0000026758

1    
  0.0000000000000000   0.0000000000000000  -0.0100000000000000
   0.0000389932    0.0000000000    0.0001792551
  -0.0000021468    0.0000000000    0.0000010451
  -0.0000013268    0.0000000900    0.0000036951
  -0.0000019268    0.0000003400    0.0000000551
  -0.0000001868    0.0000000000    0.0000008551
  -0.0000018768    0.0000000000   -0.0000004049
  -0.0000013268   -0.0000000900    0.0000036951
  -0.0000019268   -0.0000003400    0.0000000551
   0.0000000532    0.0000000000   -0.0000025049
  -0.0000019368    0.0000000000   -0.0000020149
   0.0000002232    0.0000001300   -0.0000013549
  -0.0000018968    0.0000000800   -0.0000015649
   0.0000001732    0.0000000000   -0.0000007649
  -0.0000019068    0.0000000000   -0.0000012749
   0.0000002232   -0.0000001300   -0.0000013549
  -0.0000018968   -0.0000000800   -0.0000015649
   0.0000002332   -0.0000030600   -0.0000030749
   0.0000004532   -0.0000012600   -0.0000011749
   0.0000002332    0.0000030600   -0.0000030749
   0.0000004532    0.0000012600   -0.0000011749
   0.0000022232    0.0000006200   -0.0000008349
  -0.0000002468    0.0000004400   -0.0000008449
   0.0000022232   -0.0000006200   -0.0000008349
  -0.0000002468   -0.0000004400   -0.0000008449
   0.0000044632    0.0000004600   -0.0000030749
  -0.0000027768    0.0000018000   -0.0000011849
   0.0000044632   -0.0000004600   -0.0000030749
  -0.0000027768   -0.0000018000   -0.0000011849
   0.0000027432   -0.0000005800   -0.0000008349
  -0.0000011468   -0.0000005300   -0.0000008549
   0.0000027432    0.0000005800   -0.0000008349
  -0.0000011468    0.0000005300   -0.0000008549
   0.0000192832    0.0000000000   -0.0000098449
  -0.0000018868    0.0000000000    0.0000029051
  -0.0000067068    0.0000015000    0.0000003551
   0.0000012232    0.0000008400    0.0000014351
  -0.0000073968    0.0000000000    0.0000011851
   0.0000018032    0.0000000000    0.0000012051
  -0.0000067068   -0.0000015000    0.0000003551
   0.0000012232   -0.0000008400    0.0000014351
  -0.0000075968    0.0000000000   -0.0000016149
   0.0000027132    0.0000000000   -0.0000002649