phonopy:
  version: 2.17.1
  calculator: cp2k
  frequency_unit_conversion_factor: 15.633302
  symmetry_tolerance: 1.00000e-05
  configuration:
    cell_filename: "energy.inp"
    create_displacements: ".true."
    dim: "2 4 2"
    calculator: "cp2k"

physical_unit:
  atomic_mass: "AMU"
  length: "angstrom"
  force_constants: "hartree/angstrom.au"

space_group:
  type: "Pnma"
  number: 62
  Hall_symbol: "-P 2ac 2n"

supercell_matrix:
- [   2,   0,   0 ]
- [   0,   4,   0 ]
- [   0,   0,   2 ]

primitive_cell:
  lattice:
  - [     9.664001965883248,     0.000000000000000,     0.000000000000000 ] # a
  - [     0.000000000000000,     5.917319068818233,     0.000000000000000 ] # b
  - [     0.000000000000000,     0.000000000000000,    11.660733647103260 ] # c
  points:
  - symbol: Cs # 1
    coordinates: [  0.474456472178641,  0.750000000000000,  0.670929714544961 ]
    mass: 132.905452
  - symbol: Cs # 2
    coordinates: [  0.025543527728871,  0.250000000000000,  0.170929714552808 ]
    mass: 132.905452
  - symbol: Cs # 3
    coordinates: [  0.854521502563859,  0.750000000000000,  0.426733738862736 ]
    mass: 132.905452
  - symbol: Cs # 4
    coordinates: [  0.145478497337715,  0.250000000000000,  0.573266261644474 ]
    mass: 132.905452
  - symbol: Cs # 5
    coordinates: [  0.525543527728691,  0.250000000000000,  0.329070285951164 ]
    mass: 132.905452
  - symbol: Cs # 6
    coordinates: [  0.645478497361544,  0.250000000000000,  0.926733738861158 ]
    mass: 132.905452
  - symbol: Cs # 7
    coordinates: [  0.354521502575092,  0.750000000000000,  0.073266261641482 ]
    mass: 132.905452
  - symbol: Cs # 8
    coordinates: [  0.974456472221049,  0.750000000000000,  0.829070285951934 ]
    mass: 132.905452
  - symbol: Te # 9
    coordinates: [  0.247395100496741,  0.250000000000000,  0.887163505904523 ]
    mass: 127.600000
  - symbol: Te # 10
    coordinates: [  0.252604899460698,  0.750000000000000,  0.387163505930654 ]
    mass: 127.600000
  - symbol: Te # 11
    coordinates: [  0.747395100491223,  0.250000000000000,  0.612836494567642 ]
    mass: 127.600000
  - symbol: Te # 12
    coordinates: [  0.752604899460143,  0.750000000000000,  0.112836494576748 ]
    mass: 127.600000
  reciprocal_lattice: # without 2pi
  - [     0.103476800142456,     0.000000000000000,     0.000000000000000 ] # a*
  - [     0.000000000000000,     0.168995450197975,     0.000000000000000 ] # b*
  - [     0.000000000000000,     0.000000000000000,     0.085757897424269 ] # c*

unit_cell:
  lattice:
  - [     9.664001965883248,     0.000000000000000,     0.000000000000000 ] # a
  - [     0.000000000000000,     5.917319068818233,     0.000000000000000 ] # b
  - [     0.000000000000000,     0.000000000000000,    11.660733647103260 ] # c
  points:
  - symbol: Cs # 1
    coordinates: [  0.474456472178641,  0.750000000000000,  0.670929714544961 ]
    mass: 132.905452
    reduced_to: 1
  - symbol: Cs # 2
    coordinates: [  0.025543527728871,  0.250000000000000,  0.170929714552808 ]
    mass: 132.905452
    reduced_to: 2
  - symbol: Cs # 3
    coordinates: [  0.854521502563859,  0.750000000000000,  0.426733738862736 ]
    mass: 132.905452
    reduced_to: 3
  - symbol: Cs # 4
    coordinates: [  0.145478497337715,  0.250000000000000,  0.573266261644474 ]
    mass: 132.905452
    reduced_to: 4
  - symbol: Cs # 5
    coordinates: [  0.525543527728691,  0.250000000000000,  0.329070285951164 ]
    mass: 132.905452
    reduced_to: 5
  - symbol: Cs # 6
    coordinates: [  0.645478497361544,  0.250000000000000,  0.926733738861158 ]
    mass: 132.905452
    reduced_to: 6
  - symbol: Cs # 7
    coordinates: [  0.354521502575092,  0.750000000000000,  0.073266261641482 ]
    mass: 132.905452
    reduced_to: 7
  - symbol: Cs # 8
    coordinates: [  0.974456472221049,  0.750000000000000,  0.829070285951934 ]
    mass: 132.905452
    reduced_to: 8
  - symbol: Te # 9
    coordinates: [  0.247395100496741,  0.250000000000000,  0.887163505904523 ]
    mass: 127.600000
    reduced_to: 9
  - symbol: Te # 10
    coordinates: [  0.252604899460698,  0.750000000000000,  0.387163505930654 ]
    mass: 127.600000
    reduced_to: 10
  - symbol: Te # 11
    coordinates: [  0.747395100491223,  0.250000000000000,  0.612836494567642 ]
    mass: 127.600000
    reduced_to: 11
  - symbol: Te # 12
    coordinates: [  0.752604899460143,  0.750000000000000,  0.112836494576748 ]
    mass: 127.600000
    reduced_to: 12

supercell:
  lattice:
  - [    19.328003931766496,     0.000000000000000,     0.000000000000000 ] # a
  - [     0.000000000000000,    23.669276275272932,     0.000000000000000 ] # b
  - [     0.000000000000000,     0.000000000000000,    23.321467294206521 ] # c
  points:
  - symbol: Cs # 1
    coordinates: [  0.237228236089321,  0.187500000000000,  0.335464857272480 ]
    mass: 132.905452
    reduced_to: 1
  - symbol: Cs # 2
    coordinates: [  0.737228236089321,  0.187500000000000,  0.335464857272480 ]
    mass: 132.905452
    reduced_to: 1
  - symbol: Cs # 3
    coordinates: [  0.237228236089321,  0.437500000000000,  0.335464857272480 ]
    mass: 132.905452
    reduced_to: 1
  - symbol: Cs # 4
    coordinates: [  0.737228236089321,  0.437500000000000,  0.335464857272480 ]
    mass: 132.905452
    reduced_to: 1
  - symbol: Cs # 5
    coordinates: [  0.237228236089321,  0.687500000000000,  0.335464857272480 ]
    mass: 132.905452
    reduced_to: 1
  - symbol: Cs # 6
    coordinates: [  0.737228236089321,  0.687500000000000,  0.335464857272480 ]
    mass: 132.905452
    reduced_to: 1
  - symbol: Cs # 7
    coordinates: [  0.237228236089321,  0.937500000000000,  0.335464857272480 ]
    mass: 132.905452
    reduced_to: 1
  - symbol: Cs # 8
    coordinates: [  0.737228236089321,  0.937500000000000,  0.335464857272480 ]
    mass: 132.905452
    reduced_to: 1
  - symbol: Cs # 9
    coordinates: [  0.237228236089321,  0.187500000000000,  0.835464857272480 ]
    mass: 132.905452
    reduced_to: 1
  - symbol: Cs # 10
    coordinates: [  0.737228236089321,  0.187500000000000,  0.835464857272480 ]
    mass: 132.905452
    reduced_to: 1
  - symbol: Cs # 11
    coordinates: [  0.237228236089321,  0.437500000000000,  0.835464857272480 ]
    mass: 132.905452
    reduced_to: 1
  - symbol: Cs # 12
    coordinates: [  0.737228236089321,  0.437500000000000,  0.835464857272480 ]
    mass: 132.905452
    reduced_to: 1
  - symbol: Cs # 13
    coordinates: [  0.237228236089321,  0.687500000000000,  0.835464857272480 ]
    mass: 132.905452
    reduced_to: 1
  - symbol: Cs # 14
    coordinates: [  0.737228236089321,  0.687500000000000,  0.835464857272480 ]
    mass: 132.905452
    reduced_to: 1
  - symbol: Cs # 15
    coordinates: [  0.237228236089321,  0.937500000000000,  0.835464857272480 ]
    mass: 132.905452
    reduced_to: 1
  - symbol: Cs # 16
    coordinates: [  0.737228236089321,  0.937500000000000,  0.835464857272480 ]
    mass: 132.905452
    reduced_to: 1
  - symbol: Cs # 17
    coordinates: [  0.012771763864436,  0.062500000000000,  0.085464857276404 ]
    mass: 132.905452
    reduced_to: 17
  - symbol: Cs # 18
    coordinates: [  0.512771763864436,  0.062500000000000,  0.085464857276404 ]
    mass: 132.905452
    reduced_to: 17
  - symbol: Cs # 19
    coordinates: [  0.012771763864436,  0.312500000000000,  0.085464857276404 ]
    mass: 132.905452
    reduced_to: 17
  - symbol: Cs # 20
    coordinates: [  0.512771763864436,  0.312500000000000,  0.085464857276404 ]
    mass: 132.905452
    reduced_to: 17
  - symbol: Cs # 21
    coordinates: [  0.012771763864436,  0.562500000000000,  0.085464857276404 ]
    mass: 132.905452
    reduced_to: 17
  - symbol: Cs # 22
    coordinates: [  0.512771763864436,  0.562500000000000,  0.085464857276404 ]
    mass: 132.905452
    reduced_to: 17
  - symbol: Cs # 23
    coordinates: [  0.012771763864436,  0.812500000000000,  0.085464857276404 ]
    mass: 132.905452
    reduced_to: 17
  - symbol: Cs # 24
    coordinates: [  0.512771763864436,  0.812500000000000,  0.085464857276404 ]
    mass: 132.905452
    reduced_to: 17
  - symbol: Cs # 25
    coordinates: [  0.012771763864436,  0.062500000000000,  0.585464857276404 ]
    mass: 132.905452
    reduced_to: 17
  - symbol: Cs # 26
    coordinates: [  0.512771763864436,  0.062500000000000,  0.585464857276404 ]
    mass: 132.905452
    reduced_to: 17
  - symbol: Cs # 27
    coordinates: [  0.012771763864436,  0.312500000000000,  0.585464857276404 ]
    mass: 132.905452
    reduced_to: 17
  - symbol: Cs # 28
    coordinates: [  0.512771763864436,  0.312500000000000,  0.585464857276404 ]
    mass: 132.905452
    reduced_to: 17
  - symbol: Cs # 29
    coordinates: [  0.012771763864436,  0.562500000000000,  0.585464857276404 ]
    mass: 132.905452
    reduced_to: 17
  - symbol: Cs # 30
    coordinates: [  0.512771763864436,  0.562500000000000,  0.585464857276404 ]
    mass: 132.905452
    reduced_to: 17
  - symbol: Cs # 31
    coordinates: [  0.012771763864436,  0.812500000000000,  0.585464857276404 ]
    mass: 132.905452
    reduced_to: 17
  - symbol: Cs # 32
    coordinates: [  0.512771763864436,  0.812500000000000,  0.585464857276404 ]
    mass: 132.905452
    reduced_to: 17
  - symbol: Cs # 33
    coordinates: [  0.427260751281929,  0.187500000000000,  0.213366869431368 ]
    mass: 132.905452
    reduced_to: 33
  - symbol: Cs # 34
    coordinates: [  0.927260751281929,  0.187500000000000,  0.213366869431368 ]
    mass: 132.905452
    reduced_to: 33
  - symbol: Cs # 35
    coordinates: [  0.427260751281929,  0.437500000000000,  0.213366869431368 ]
    mass: 132.905452
    reduced_to: 33
  - symbol: Cs # 36
    coordinates: [  0.927260751281929,  0.437500000000000,  0.213366869431368 ]
    mass: 132.905452
    reduced_to: 33
  - symbol: Cs # 37
    coordinates: [  0.427260751281929,  0.687500000000000,  0.213366869431368 ]
    mass: 132.905452
    reduced_to: 33
  - symbol: Cs # 38
    coordinates: [  0.927260751281929,  0.687500000000000,  0.213366869431368 ]
    mass: 132.905452
    reduced_to: 33
  - symbol: Cs # 39
    coordinates: [  0.427260751281929,  0.937500000000000,  0.213366869431368 ]
    mass: 132.905452
    reduced_to: 33
  - symbol: Cs # 40
    coordinates: [  0.927260751281929,  0.937500000000000,  0.213366869431368 ]
    mass: 132.905452
    reduced_to: 33
  - symbol: Cs # 41
    coordinates: [  0.427260751281929,  0.187500000000000,  0.713366869431368 ]
    mass: 132.905452
    reduced_to: 33
  - symbol: Cs # 42
    coordinates: [  0.927260751281929,  0.187500000000000,  0.713366869431368 ]
    mass: 132.905452
    reduced_to: 33
  - symbol: Cs # 43
    coordinates: [  0.427260751281929,  0.437500000000000,  0.713366869431368 ]
    mass: 132.905452
    reduced_to: 33
  - symbol: Cs # 44
    coordinates: [  0.927260751281929,  0.437500000000000,  0.713366869431368 ]
    mass: 132.905452
    reduced_to: 33
  - symbol: Cs # 45
    coordinates: [  0.427260751281929,  0.687500000000000,  0.713366869431368 ]
    mass: 132.905452
    reduced_to: 33
  - symbol: Cs # 46
    coordinates: [  0.927260751281929,  0.687500000000000,  0.713366869431368 ]
    mass: 132.905452
    reduced_to: 33
  - symbol: Cs # 47
    coordinates: [  0.427260751281929,  0.937500000000000,  0.713366869431368 ]
    mass: 132.905452
    reduced_to: 33
  - symbol: Cs # 48
    coordinates: [  0.927260751281929,  0.937500000000000,  0.713366869431368 ]
    mass: 132.905452
    reduced_to: 33
  - symbol: Cs # 49
    coordinates: [  0.072739248668857,  0.062500000000000,  0.286633130822237 ]
    mass: 132.905452
    reduced_to: 49
  - symbol: Cs # 50
    coordinates: [  0.572739248668857,  0.062500000000000,  0.286633130822237 ]
    mass: 132.905452
    reduced_to: 49
  - symbol: Cs # 51
    coordinates: [  0.072739248668857,  0.312500000000000,  0.286633130822237 ]
    mass: 132.905452
    reduced_to: 49
  - symbol: Cs # 52
    coordinates: [  0.572739248668857,  0.312500000000000,  0.286633130822237 ]
    mass: 132.905452
    reduced_to: 49
  - symbol: Cs # 53
    coordinates: [  0.072739248668857,  0.562500000000000,  0.286633130822237 ]
    mass: 132.905452
    reduced_to: 49
  - symbol: Cs # 54
    coordinates: [  0.572739248668857,  0.562500000000000,  0.286633130822237 ]
    mass: 132.905452
    reduced_to: 49
  - symbol: Cs # 55
    coordinates: [  0.072739248668857,  0.812500000000000,  0.286633130822237 ]
    mass: 132.905452
    reduced_to: 49
  - symbol: Cs # 56
    coordinates: [  0.572739248668857,  0.812500000000000,  0.286633130822237 ]
    mass: 132.905452
    reduced_to: 49
  - symbol: Cs # 57
    coordinates: [  0.072739248668857,  0.062500000000000,  0.786633130822237 ]
    mass: 132.905452
    reduced_to: 49
  - symbol: Cs # 58
    coordinates: [  0.572739248668857,  0.062500000000000,  0.786633130822237 ]
    mass: 132.905452
    reduced_to: 49
  - symbol: Cs # 59
    coordinates: [  0.072739248668857,  0.312500000000000,  0.786633130822237 ]
    mass: 132.905452
    reduced_to: 49
  - symbol: Cs # 60
    coordinates: [  0.572739248668857,  0.312500000000000,  0.786633130822237 ]
    mass: 132.905452
    reduced_to: 49
  - symbol: Cs # 61
    coordinates: [  0.072739248668857,  0.562500000000000,  0.786633130822237 ]
    mass: 132.905452
    reduced_to: 49
  - symbol: Cs # 62
    coordinates: [  0.572739248668857,  0.562500000000000,  0.786633130822237 ]
    mass: 132.905452
    reduced_to: 49
  - symbol: Cs # 63
    coordinates: [  0.072739248668857,  0.812500000000000,  0.786633130822237 ]
    mass: 132.905452
    reduced_to: 49
  - symbol: Cs # 64
    coordinates: [  0.572739248668857,  0.812500000000000,  0.786633130822237 ]
    mass: 132.905452
    reduced_to: 49
  - symbol: Cs # 65
    coordinates: [  0.262771763864345,  0.062500000000000,  0.164535142975582 ]
    mass: 132.905452
    reduced_to: 65
  - symbol: Cs # 66
    coordinates: [  0.762771763864345,  0.062500000000000,  0.164535142975582 ]
    mass: 132.905452
    reduced_to: 65
  - symbol: Cs # 67
    coordinates: [  0.262771763864345,  0.312500000000000,  0.164535142975582 ]
    mass: 132.905452
    reduced_to: 65
  - symbol: Cs # 68
    coordinates: [  0.762771763864345,  0.312500000000000,  0.164535142975582 ]
    mass: 132.905452
    reduced_to: 65
  - symbol: Cs # 69
    coordinates: [  0.262771763864345,  0.562500000000000,  0.164535142975582 ]
    mass: 132.905452
    reduced_to: 65
  - symbol: Cs # 70
    coordinates: [  0.762771763864345,  0.562500000000000,  0.164535142975582 ]
    mass: 132.905452
    reduced_to: 65
  - symbol: Cs # 71
    coordinates: [  0.262771763864345,  0.812500000000000,  0.164535142975582 ]
    mass: 132.905452
    reduced_to: 65
  - symbol: Cs # 72
    coordinates: [  0.762771763864345,  0.812500000000000,  0.164535142975582 ]
    mass: 132.905452
    reduced_to: 65
  - symbol: Cs # 73
    coordinates: [  0.262771763864345,  0.062500000000000,  0.664535142975582 ]
    mass: 132.905452
    reduced_to: 65
  - symbol: Cs # 74
    coordinates: [  0.762771763864345,  0.062500000000000,  0.664535142975582 ]
    mass: 132.905452
    reduced_to: 65
  - symbol: Cs # 75
    coordinates: [  0.262771763864345,  0.312500000000000,  0.664535142975582 ]
    mass: 132.905452
    reduced_to: 65
  - symbol: Cs # 76
    coordinates: [  0.762771763864345,  0.312500000000000,  0.664535142975582 ]
    mass: 132.905452
    reduced_to: 65
  - symbol: Cs # 77
    coordinates: [  0.262771763864345,  0.562500000000000,  0.664535142975582 ]
    mass: 132.905452
    reduced_to: 65
  - symbol: Cs # 78
    coordinates: [  0.762771763864345,  0.562500000000000,  0.664535142975582 ]
    mass: 132.905452
    reduced_to: 65
  - symbol: Cs # 79
    coordinates: [  0.262771763864345,  0.812500000000000,  0.664535142975582 ]
    mass: 132.905452
    reduced_to: 65
  - symbol: Cs # 80
    coordinates: [  0.762771763864345,  0.812500000000000,  0.664535142975582 ]
    mass: 132.905452
    reduced_to: 65
  - symbol: Cs # 81
    coordinates: [  0.322739248680772,  0.062500000000000,  0.463366869430579 ]
    mass: 132.905452
    reduced_to: 81
  - symbol: Cs # 82
    coordinates: [  0.822739248680772,  0.062500000000000,  0.463366869430579 ]
    mass: 132.905452
    reduced_to: 81
  - symbol: Cs # 83
    coordinates: [  0.322739248680772,  0.312500000000000,  0.463366869430579 ]
    mass: 132.905452
    reduced_to: 81
  - symbol: Cs # 84
    coordinates: [  0.822739248680772,  0.312500000000000,  0.463366869430579 ]
    mass: 132.905452
    reduced_to: 81
  - symbol: Cs # 85
    coordinates: [  0.322739248680772,  0.562500000000000,  0.463366869430579 ]
    mass: 132.905452
    reduced_to: 81
  - symbol: Cs # 86
    coordinates: [  0.822739248680772,  0.562500000000000,  0.463366869430579 ]
    mass: 132.905452
    reduced_to: 81
  - symbol: Cs # 87
    coordinates: [  0.322739248680772,  0.812500000000000,  0.463366869430579 ]
    mass: 132.905452
    reduced_to: 81
  - symbol: Cs # 88
    coordinates: [  0.822739248680772,  0.812500000000000,  0.463366869430579 ]
    mass: 132.905452
    reduced_to: 81
  - symbol: Cs # 89
    coordinates: [  0.322739248680772,  0.062500000000000,  0.963366869430579 ]
    mass: 132.905452
    reduced_to: 81
  - symbol: Cs # 90
    coordinates: [  0.822739248680772,  0.062500000000000,  0.963366869430579 ]
    mass: 132.905452
    reduced_to: 81
  - symbol: Cs # 91
    coordinates: [  0.322739248680772,  0.312500000000000,  0.963366869430579 ]
    mass: 132.905452
    reduced_to: 81
  - symbol: Cs # 92
    coordinates: [  0.822739248680772,  0.312500000000000,  0.963366869430579 ]
    mass: 132.905452
    reduced_to: 81
  - symbol: Cs # 93
    coordinates: [  0.322739248680772,  0.562500000000000,  0.963366869430579 ]
    mass: 132.905452
    reduced_to: 81
  - symbol: Cs # 94
    coordinates: [  0.822739248680772,  0.562500000000000,  0.963366869430579 ]
    mass: 132.905452
    reduced_to: 81
  - symbol: Cs # 95
    coordinates: [  0.322739248680772,  0.812500000000000,  0.963366869430579 ]
    mass: 132.905452
    reduced_to: 81
  - symbol: Cs # 96
    coordinates: [  0.822739248680772,  0.812500000000000,  0.963366869430579 ]
    mass: 132.905452
    reduced_to: 81
  - symbol: Cs # 97
    coordinates: [  0.177260751287546,  0.187500000000000,  0.036633130820741 ]
    mass: 132.905452
    reduced_to: 97
  - symbol: Cs # 98
    coordinates: [  0.677260751287546,  0.187500000000000,  0.036633130820741 ]
    mass: 132.905452
    reduced_to: 97
  - symbol: Cs # 99
    coordinates: [  0.177260751287546,  0.437500000000000,  0.036633130820741 ]
    mass: 132.905452
    reduced_to: 97
  - symbol: Cs # 100
    coordinates: [  0.677260751287546,  0.437500000000000,  0.036633130820741 ]
    mass: 132.905452
    reduced_to: 97
  - symbol: Cs # 101
    coordinates: [  0.177260751287546,  0.687500000000000,  0.036633130820741 ]
    mass: 132.905452
    reduced_to: 97
  - symbol: Cs # 102
    coordinates: [  0.677260751287546,  0.687500000000000,  0.036633130820741 ]
    mass: 132.905452
    reduced_to: 97
  - symbol: Cs # 103
    coordinates: [  0.177260751287546,  0.937500000000000,  0.036633130820741 ]
    mass: 132.905452
    reduced_to: 97
  - symbol: Cs # 104
    coordinates: [  0.677260751287546,  0.937500000000000,  0.036633130820741 ]
    mass: 132.905452
    reduced_to: 97
  - symbol: Cs # 105
    coordinates: [  0.177260751287546,  0.187500000000000,  0.536633130820741 ]
    mass: 132.905452
    reduced_to: 97
  - symbol: Cs # 106
    coordinates: [  0.677260751287546,  0.187500000000000,  0.536633130820741 ]
    mass: 132.905452
    reduced_to: 97
  - symbol: Cs # 107
    coordinates: [  0.177260751287546,  0.437500000000000,  0.536633130820741 ]
    mass: 132.905452
    reduced_to: 97
  - symbol: Cs # 108
    coordinates: [  0.677260751287546,  0.437500000000000,  0.536633130820741 ]
    mass: 132.905452
    reduced_to: 97
  - symbol: Cs # 109
    coordinates: [  0.177260751287546,  0.687500000000000,  0.536633130820741 ]
    mass: 132.905452
    reduced_to: 97
  - symbol: Cs # 110
    coordinates: [  0.677260751287546,  0.687500000000000,  0.536633130820741 ]
    mass: 132.905452
    reduced_to: 97
  - symbol: Cs # 111
    coordinates: [  0.177260751287546,  0.937500000000000,  0.536633130820741 ]
    mass: 132.905452
    reduced_to: 97
  - symbol: Cs # 112
    coordinates: [  0.677260751287546,  0.937500000000000,  0.536633130820741 ]
    mass: 132.905452
    reduced_to: 97
  - symbol: Cs # 113
    coordinates: [  0.487228236110524,  0.187500000000000,  0.414535142975967 ]
    mass: 132.905452
    reduced_to: 113
  - symbol: Cs # 114
    coordinates: [  0.987228236110524,  0.187500000000000,  0.414535142975967 ]
    mass: 132.905452
    reduced_to: 113
  - symbol: Cs # 115
    coordinates: [  0.487228236110524,  0.437500000000000,  0.414535142975967 ]
    mass: 132.905452
    reduced_to: 113
  - symbol: Cs # 116
    coordinates: [  0.987228236110524,  0.437500000000000,  0.414535142975967 ]
    mass: 132.905452
    reduced_to: 113
  - symbol: Cs # 117
    coordinates: [  0.487228236110524,  0.687500000000000,  0.414535142975967 ]
    mass: 132.905452
    reduced_to: 113
  - symbol: Cs # 118
    coordinates: [  0.987228236110524,  0.687500000000000,  0.414535142975967 ]
    mass: 132.905452
    reduced_to: 113
  - symbol: Cs # 119
    coordinates: [  0.487228236110524,  0.937500000000000,  0.414535142975967 ]
    mass: 132.905452
    reduced_to: 113
  - symbol: Cs # 120
    coordinates: [  0.987228236110524,  0.937500000000000,  0.414535142975967 ]
    mass: 132.905452
    reduced_to: 113
  - symbol: Cs # 121
    coordinates: [  0.487228236110524,  0.187500000000000,  0.914535142975967 ]
    mass: 132.905452
    reduced_to: 113
  - symbol: Cs # 122
    coordinates: [  0.987228236110524,  0.187500000000000,  0.914535142975967 ]
    mass: 132.905452
    reduced_to: 113
  - symbol: Cs # 123
    coordinates: [  0.487228236110524,  0.437500000000000,  0.914535142975967 ]
    mass: 132.905452
    reduced_to: 113
  - symbol: Cs # 124
    coordinates: [  0.987228236110524,  0.437500000000000,  0.914535142975967 ]
    mass: 132.905452
    reduced_to: 113
  - symbol: Cs # 125
    coordinates: [  0.487228236110524,  0.687500000000000,  0.914535142975967 ]
    mass: 132.905452
    reduced_to: 113
  - symbol: Cs # 126
    coordinates: [  0.987228236110524,  0.687500000000000,  0.914535142975967 ]
    mass: 132.905452
    reduced_to: 113
  - symbol: Cs # 127
    coordinates: [  0.487228236110524,  0.937500000000000,  0.914535142975967 ]
    mass: 132.905452
    reduced_to: 113
  - symbol: Cs # 128
    coordinates: [  0.987228236110524,  0.937500000000000,  0.914535142975967 ]
    mass: 132.905452
    reduced_to: 113
  - symbol: Te # 129
    coordinates: [  0.123697550248371,  0.062500000000000,  0.443581752952262 ]
    mass: 127.600000
    reduced_to: 129
  - symbol: Te # 130
    coordinates: [  0.623697550248371,  0.062500000000000,  0.443581752952262 ]
    mass: 127.600000
    reduced_to: 129
  - symbol: Te # 131
    coordinates: [  0.123697550248371,  0.312500000000000,  0.443581752952262 ]
    mass: 127.600000
    reduced_to: 129
  - symbol: Te # 132
    coordinates: [  0.623697550248371,  0.312500000000000,  0.443581752952262 ]
    mass: 127.600000
    reduced_to: 129
  - symbol: Te # 133
    coordinates: [  0.123697550248371,  0.562500000000000,  0.443581752952262 ]
    mass: 127.600000
    reduced_to: 129
  - symbol: Te # 134
    coordinates: [  0.623697550248371,  0.562500000000000,  0.443581752952262 ]
    mass: 127.600000
    reduced_to: 129
  - symbol: Te # 135
    coordinates: [  0.123697550248371,  0.812500000000000,  0.443581752952262 ]
    mass: 127.600000
    reduced_to: 129
  - symbol: Te # 136
    coordinates: [  0.623697550248371,  0.812500000000000,  0.443581752952262 ]
    mass: 127.600000
    reduced_to: 129
  - symbol: Te # 137
    coordinates: [  0.123697550248371,  0.062500000000000,  0.943581752952262 ]
    mass: 127.600000
    reduced_to: 129
  - symbol: Te # 138
    coordinates: [  0.623697550248371,  0.062500000000000,  0.943581752952262 ]
    mass: 127.600000
    reduced_to: 129
  - symbol: Te # 139
    coordinates: [  0.123697550248371,  0.312500000000000,  0.943581752952262 ]
    mass: 127.600000
    reduced_to: 129
  - symbol: Te # 140
    coordinates: [  0.623697550248371,  0.312500000000000,  0.943581752952262 ]
    mass: 127.600000
    reduced_to: 129
  - symbol: Te # 141
    coordinates: [  0.123697550248371,  0.562500000000000,  0.943581752952262 ]
    mass: 127.600000
    reduced_to: 129
  - symbol: Te # 142
    coordinates: [  0.623697550248371,  0.562500000000000,  0.943581752952262 ]
    mass: 127.600000
    reduced_to: 129
  - symbol: Te # 143
    coordinates: [  0.123697550248371,  0.812500000000000,  0.943581752952262 ]
    mass: 127.600000
    reduced_to: 129
  - symbol: Te # 144
    coordinates: [  0.623697550248371,  0.812500000000000,  0.943581752952262 ]
    mass: 127.600000
    reduced_to: 129
  - symbol: Te # 145
    coordinates: [  0.126302449730349,  0.187500000000000,  0.193581752965327 ]
    mass: 127.600000
    reduced_to: 145
  - symbol: Te # 146
    coordinates: [  0.626302449730349,  0.187500000000000,  0.193581752965327 ]
    mass: 127.600000
    reduced_to: 145
  - symbol: Te # 147
    coordinates: [  0.126302449730349,  0.437500000000000,  0.193581752965327 ]
    mass: 127.600000
    reduced_to: 145
  - symbol: Te # 148
    coordinates: [  0.626302449730349,  0.437500000000000,  0.193581752965327 ]
    mass: 127.600000
    reduced_to: 145
  - symbol: Te # 149
    coordinates: [  0.126302449730349,  0.687500000000000,  0.193581752965327 ]
    mass: 127.600000
    reduced_to: 145
  - symbol: Te # 150
    coordinates: [  0.626302449730349,  0.687500000000000,  0.193581752965327 ]
    mass: 127.600000
    reduced_to: 145
  - symbol: Te # 151
    coordinates: [  0.126302449730349,  0.937500000000000,  0.193581752965327 ]
    mass: 127.600000
    reduced_to: 145
  - symbol: Te # 152
    coordinates: [  0.626302449730349,  0.937500000000000,  0.193581752965327 ]
    mass: 127.600000
    reduced_to: 145
  - symbol: Te # 153
    coordinates: [  0.126302449730349,  0.187500000000000,  0.693581752965327 ]
    mass: 127.600000
    reduced_to: 145
  - symbol: Te # 154
    coordinates: [  0.626302449730349,  0.187500000000000,  0.693581752965327 ]
    mass: 127.600000
    reduced_to: 145
  - symbol: Te # 155
    coordinates: [  0.126302449730349,  0.437500000000000,  0.693581752965327 ]
    mass: 127.600000
    reduced_to: 145
  - symbol: Te # 156
    coordinates: [  0.626302449730349,  0.437500000000000,  0.693581752965327 ]
    mass: 127.600000
    reduced_to: 145
  - symbol: Te # 157
    coordinates: [  0.126302449730349,  0.687500000000000,  0.693581752965327 ]
    mass: 127.600000
    reduced_to: 145
  - symbol: Te # 158
    coordinates: [  0.626302449730349,  0.687500000000000,  0.693581752965327 ]
    mass: 127.600000
    reduced_to: 145
  - symbol: Te # 159
    coordinates: [  0.126302449730349,  0.937500000000000,  0.693581752965327 ]
    mass: 127.600000
    reduced_to: 145
  - symbol: Te # 160
    coordinates: [  0.626302449730349,  0.937500000000000,  0.693581752965327 ]
    mass: 127.600000
    reduced_to: 145
  - symbol: Te # 161
    coordinates: [  0.373697550245611,  0.062500000000000,  0.306418247283821 ]
    mass: 127.600000
    reduced_to: 161
  - symbol: Te # 162
    coordinates: [  0.873697550245611,  0.062500000000000,  0.306418247283821 ]
    mass: 127.600000
    reduced_to: 161
  - symbol: Te # 163
    coordinates: [  0.373697550245611,  0.312500000000000,  0.306418247283821 ]
    mass: 127.600000
    reduced_to: 161
  - symbol: Te # 164
    coordinates: [  0.873697550245611,  0.312500000000000,  0.306418247283821 ]
    mass: 127.600000
    reduced_to: 161
  - symbol: Te # 165
    coordinates: [  0.373697550245611,  0.562500000000000,  0.306418247283821 ]
    mass: 127.600000
    reduced_to: 161
  - symbol: Te # 166
    coordinates: [  0.873697550245611,  0.562500000000000,  0.306418247283821 ]
    mass: 127.600000
    reduced_to: 161
  - symbol: Te # 167
    coordinates: [  0.373697550245611,  0.812500000000000,  0.306418247283821 ]
    mass: 127.600000
    reduced_to: 161
  - symbol: Te # 168
    coordinates: [  0.873697550245611,  0.812500000000000,  0.306418247283821 ]
    mass: 127.600000
    reduced_to: 161
  - symbol: Te # 169
    coordinates: [  0.373697550245611,  0.062500000000000,  0.806418247283821 ]
    mass: 127.600000
    reduced_to: 161
  - symbol: Te # 170
    coordinates: [  0.873697550245611,  0.062500000000000,  0.806418247283821 ]
    mass: 127.600000
    reduced_to: 161
  - symbol: Te # 171
    coordinates: [  0.373697550245611,  0.312500000000000,  0.806418247283821 ]
    mass: 127.600000
    reduced_to: 161
  - symbol: Te # 172
    coordinates: [  0.873697550245611,  0.312500000000000,  0.806418247283821 ]
    mass: 127.600000
    reduced_to: 161
  - symbol: Te # 173
    coordinates: [  0.373697550245611,  0.562500000000000,  0.806418247283821 ]
    mass: 127.600000
    reduced_to: 161
  - symbol: Te # 174
    coordinates: [  0.873697550245611,  0.562500000000000,  0.806418247283821 ]
    mass: 127.600000
    reduced_to: 161
  - symbol: Te # 175
    coordinates: [  0.373697550245611,  0.812500000000000,  0.806418247283821 ]
    mass: 127.600000
    reduced_to: 161
  - symbol: Te # 176
    coordinates: [  0.873697550245611,  0.812500000000000,  0.806418247283821 ]
    mass: 127.600000
    reduced_to: 161
  - symbol: Te # 177
    coordinates: [  0.376302449730072,  0.187500000000000,  0.056418247288374 ]
    mass: 127.600000
    reduced_to: 177
  - symbol: Te # 178
    coordinates: [  0.876302449730072,  0.187500000000000,  0.056418247288374 ]
    mass: 127.600000
    reduced_to: 177
  - symbol: Te # 179
    coordinates: [  0.376302449730072,  0.437500000000000,  0.056418247288374 ]
    mass: 127.600000
    reduced_to: 177
  - symbol: Te # 180
    coordinates: [  0.876302449730072,  0.437500000000000,  0.056418247288374 ]