       4
 i =        1, E =       -65.9870650556
 Cs         3.3060496956        1.9087901659        1.3497473929
 Cs         9.9182133374        5.7264065031        4.0492676463
 Cs         6.6121315267        3.8175982019        2.6995074524
 Sb         0.0000000008        0.0000000000        0.0000000030
       4
 i =        2, E =       -65.9871076740
 Cs         3.3107723623        1.9149956791        1.3565579126
 Cs         9.9378687907        5.7481114532        4.0718877074
 Cs         6.6243073040        3.8315234750        2.7142037686
 Sb        -0.0000011158       -0.0000061314       -0.0000041006
       4
 i =        3, E =       -65.9871077041
 Cs         3.3109332750        1.9151884080        1.3567661593
 Cs         9.9386158973        5.7488674050        4.0726386454
 Cs         6.6247610990        3.8319973981        2.7146830969
 Sb        -0.0000010598       -0.0000060681       -0.0000040650
